LAMMPS (23 Jun 2022)
#LAMMPS init file for NaCl dissociation in water
# ------------------------------- Initialization Section --------------------
units        real                            # A, fs, Kcal/mol
atom_style   full                            # Accepts positions, masses, bonds, angles, charges
pair_style lj/charmm/coul/long 9.0 10.0      # Classical LJ style potential + coulomb interaction with two cutoffs
bond_style  harmonic                         # Uses an harmonic potential around an equilibrium value for bonds
angle_style harmonic                         # Uses an harmonic potential around an equilibrium value for angles

# ------------------------------- Atom Definition Section -------------------
read_data    "../NaCl_216wat.data"           # Read from file the positions, masses, velocities, bonds and charges of the atoms
Reading data file ...
  orthogonal box = (0.12622049 0.12622049 0.12622049) to (18.47378 18.47378 18.47378)
  2 by 2 by 4 MPI processor grid
  reading atoms ...
  650 atoms
  reading velocities ...
  650 velocities
  scanning bonds ...
  2 = max bonds/atom
  scanning angles ...
  1 = max angles/atom
  reading bonds ...
  432 bonds
  reading angles ...
  216 angles
Finding 1-2 1-3 1-4 neighbors ...
  special bond factors lj:    0        0        0       
  special bond factors coul:  0        0        0       
     2 = max # of 1-2 neighbors
     1 = max # of 1-3 neighbors
     1 = max # of 1-4 neighbors
     2 = max # of special neighbors
  special bonds CPU = 0.001 seconds
  read_data CPU = 0.027 seconds

group wat type  1  2                         # Define a group for the water molecules (types 1=O, 2=H)
648 atoms in group wat

# ------------------------------- Settings Section --------------------------

### TIP3P Potential Parameters --> Water ###
set type 1 charge -0.834                     # Set charge for O
Setting atom values ...
  216 settings made for charge
set type 2 charge  0.417                     # Set charge for H
Setting atom values ...
  432 settings made for charge
pair_coeff 1 1 0.1521 3.1507                 # Set O interaction parameters
pair_coeff 2 2 0.0460 0.4000                 # Set H interaction parameters
pair_coeff 1 2 0.0836 1.7753                 # Set O-H interaction parameters
bond_coeff  1 450 0.9572                     # Set O-H bond parameters
angle_coeff 1 55 104.52                      # Set H-O-H angle parameters
kspace_style pppm 1.0e-5                     # final npt relaxation
pair_coeff 3 3  0.3526418 2.1595384928       # Set Na interaction parameters
pair_coeff 4 4   0.0127850  4.8304528498     # Set Cl interaction parameter

# ------------------------------- Run Section -------------------------------

# The dump command is used to print output, here: atom-id, molecule-id, lammps-type, xyz coord, image-xyz (for PBC box)
dump         1 all custom 500 traj_unbiased.lammpstrj id mol type x y z ix iy iz

timestep     2.0                                       # fs

# The fix command is used to act on your system
fix          fxnvt all nvt temp 300.0 300.0 500.0      # 300K Nose-Hoover thermostat to sample the NVT canonical ensemble, tau = 500*dt
fix pl all plumed plumedfile plumed.dat outfile p.log  # Make LAMMPS aware that we want to use PLUMED! Load the plumed.dat input file
fix fRattleWat wat rattle 0.0001 10 0 b 1 a 1        # Fix bonds and angles of water molecules, allow to use longer dt and it's fine for us
       0 = # of size 2 clusters
       0 = # of size 3 clusters
       0 = # of size 4 clusters
     216 = # of frozen angles
  find clusters CPU = 0.001 seconds

# The thermo command computes the thermodynamic quantities we may be interested in, can specify which ones with thermo_style
thermo         500                                       # compute and print on screen every 500dt
thermo_style   custom step temp press epair etotal

run            2500000                                    # run the simualtion for N steps
PPPM initialization ...
  using 12-bit tables for long-range coulomb (../kspace.cpp:342)
  G vector (1/distance) = 0.30520329
  grid = 16 16 16
  stencil order = 5
  estimated absolute RMS force accuracy = 0.0030333252
  estimated relative force accuracy = 9.1347686e-06
  using double precision KISS FFT
  3d grid and FFT values/proc = 2475 256
Generated 5 of 6 mixed pair_coeff terms from arithmetic mixing rule
Neighbor list info ...
  update every 1 steps, delay 10 steps, check yes
  max neighbors/atom: 2000, page size: 100000
  master list distance cutoff = 12
  ghost atom cutoff = 12
  binsize = 6, bins = 4 4 4
  1 neighbor lists, perpetual/occasional/extra = 1 0 0
  (1) pair lj/charmm/coul/long, perpetual
      attributes: half, newton on
      pair build: half/bin/newton
      stencil: half/bin/3d
      bin: standard
Per MPI rank memory allocation (min/avg/max) = 9.608 | 9.611 | 9.613 Mbytes
   Step          Temp          Press          E_pair         TotEng    
         0   306.42593     -1862.5084     -2545.2648     -2149.7637    
       500   319.952        800.90125     -2342.575      -1934.396     
      1000   314.13407      26.626386     -2338.3839     -1937.1089    
      1500   296.22353      870.01623     -2280.4546     -1900.7701    
      2000   301.08353      240.96001     -2276.6284     -1891.0955    
      2500   299.23481      2144.6845     -2312.3677     -1929.6958    
      3000   301.26707      460.32374     -2312.5995     -1926.7749    
      3500   313.65002      728.11265     -2280.5049     -1877.2712    
      4000   294.14375      2267.5508     -2304.7508     -1929.044     
      4500   293.80209      1194.8353     -2306.04       -1930.0264    
      5000   299.86815      1080.0031     -2320.0697     -1936.1936    
      5500   285.78626      1048.1432     -2281.0532     -1913.0668    
      6000   307.43162      796.94171     -2318.1716     -1921.908     
      6500   296.45901      858.56548     -2337.6147     -1957.2065    
      7000   313.47943      671.75267     -2321.1425     -1917.586     
      7500   299.84826      2168.4205     -2298.9603     -1911.0518    
      8000   292.51257     -519.94964     -2340.0897     -1961.5046    
      8500   295.56336      2005.5882     -2310.5003     -1930.2608    
      9000   309.1273       1204.7314     -2311.7948     -1913.5602    
      9500   294.9218       1679.1526     -2331.0907     -1950.8604    
     10000   289.00601      712.9474      -2364.8955     -1992.1738    
     10500   296.23718      1888.4138     -2315.8117     -1934.5939    
     11000   319.00288      803.37175     -2331.0267     -1922.2219    
     11500   286.38879      922.21659     -2325.0741     -1958.2366    
     12000   326.17582      750.68898     -2323.3986     -1905.2682    
     12500   312.57633      324.97856     -2316.7945     -1915.9645    
     13000   269.55457     -270.28534     -2323.4207     -1975.4265    
     13500   291.53506      999.91503     -2350.9091     -1975.7017    
     14000   317.26436     -388.38277     -2346.6604     -1939.3024    
     14500   294.25326      1121.2691     -2269.7596     -1891.4379    
     15000   293.19527      2222.7397     -2258.3858     -1879.2558    
     15500   295.62263      888.45104     -2307.2042     -1924.6852    
     16000   293.44087      2061.9991     -2309.4204     -1929.3648    
     16500   322.1129       1141.0088     -2294.2472     -1878.8407    
     17000   299.43257      1048.3077     -2284.7731     -1900.4413    
     17500   293.01483      1384.5671     -2314.4198     -1939.1545    
     18000   309.38475      1494.8378     -2326.4483     -1928.414     
     18500   290.98928      1055.5418     -2286.4958     -1913.1067    
     19000   310.54405      1541.6484     -2257.3467     -1857.2773    
     19500   289.4776       2253.2864     -2278.4661     -1906.2026    
     20000   291.4493       1810.8605     -2306.6083     -1932.8185    
     20500   289.92357      544.54227     -2331.2014     -1960.5269    
     21000   291.00982     -560.06904     -2334.9184     -1962.22      
     21500   316.45398      363.58261     -2321.8775     -1915.8228    
     22000   301.29629      175.13061     -2315.5957     -1928.9317    
     22500   278.59208      661.0069      -2324.1212     -1967.1581    
     23000   305.44736      1038.6634     -2313.0243     -1918.1317    
     23500   303.13141      945.15633     -2300.2948     -1910.8017    
     24000   290.41779      1546.1345     -2291.6821     -1918.6476    
     24500   289.82137      1476.2394     -2316.5223     -1944.6415    
     25000   286.25543      1144.2645     -2330.6738     -1962.3383    
     25500   298.35871      1313.2657     -2293.504      -1909.6699    
     26000   298.38807      327.45235     -2329.5963     -1945.8275    
     26500   283.27882     -727.5151      -2322.5671     -1957.376     
     27000   298.93769      1412.7441     -2325.1642     -1939.6107    
     27500   304.19134      799.11982     -2300.2059     -1908.2056    
     28000   294.99686      1049.5433     -2272.0169     -1891.381     
     28500   304.11494      1591.1059     -2341.0494     -1947.8501    
     29000   321.31161      976.09215     -2332.2662     -1916.6814    
     29500   307.76008      1102.0796     -2275.4346     -1878.5346    
     30000   308.38894      432.7959      -2330.2581     -1931.8547    
     30500   284.87739      511.7589      -2298.2997     -1930.5193    
     31000   319.65172      861.20198     -2315.3452     -1901.6022    
     31500   302.51115      811.77116     -2313.894      -1923.0316    
     32000   299.35133      941.3468      -2324.7563     -1938.3482    
     32500   287.41976      60.331956     -2344.186      -1971.8068    
     33000   307.20542      1662.7776     -2309.7681     -1913.5045    
     33500   308.66333      2000.9767     -2320.0818     -1921.4242    
     34000   299.55286      1622.7783     -2350.9099     -1963.2615    
     34500   297.61956      948.39451     -2317.0532     -1934.4312    
     35000   310.60394     -815.84936     -2324.8126     -1924.1381    
     35500   318.36761      1541.4826     -2333.4107     -1922.6874    
     36000   294.0653       590.6961      -2321.5134     -1941.3987    
     36500   285.17851     -795.56817     -2352.7308     -1984.7244    
     37000   309.36459      714.10129     -2329.8072     -1933.3618    
     37500   312.5542      -456.12894     -2319.3144     -1918.1451    
     38000   315.15942      775.6534      -2283.9913     -1879.5122    
     38500   308.72627      168.0316      -2308.5367     -1911.0262    
     39000   288.89058     -352.29623     -2311.0036     -1939.3555    
     39500   298.63728      765.25225     -2283.1846     -1899.4946    
     40000   308.50287      1364.4106     -2292.8043     -1895.8613    
     40500   284.02214      1548.7622     -2302.312      -1936.7801    
     41000   304.1139       1686.0683     -2313.3472     -1922.431     
     41500   300.05204      1844.5558     -2278.6078     -1891.4219    
     42000   281.12555      1851.1299     -2300.5027     -1939.6252    
     42500   299.45785      1356.4063     -2318.5304     -1934.9519    
     43000   305.47143      599.27024     -2266.4711     -1873.7705    
     43500   331.03817      1107.0266     -2339.5004     -1913.1858    
     44000   325.9404       104.98362     -2354.0747     -1935.1855    
     44500   283.36202      2032.8021     -2297.6632     -1932.6629    
     45000   294.90962      2096.9675     -2269.2481     -1889.6729    
     45500   287.81362      1266.673      -2306.8393     -1935.8061    
     46000   315.02064     -756.89431     -2336.9151     -1930.1175    
     46500   318.25287      2547.7909     -2363.0248     -1952.0795    
     47000   277.72099      704.29431     -2310.9013     -1953.1436    
     47500   310.55009      1731.5589     -2310.6901     -1909.2194    
     48000   308.21855      630.80906     -2342.8984     -1946.5697    
     48500   298.86804      1168.7803     -2331.0711     -1944.4771    
     49000   321.24142      3246.0037     -2300.522      -1886.2792    
     49500   283.4953       390.73679     -2298.691      -1933.3156    
     50000   298.65124      265.39285     -2353.3775     -1967.5368    
     50500   311.3532       770.0285      -2305.0259     -1902.5793    
     51000   312.07796      935.70797     -2336.2706     -1934.5633    
     51500   303.16774      691.94002     -2333.7403     -1940.9801    
     52000   316.65236      1513.3991     -2303.5456     -1895.3149    
     52500   305.27631      1466.071      -2320.0174     -1926.3437    
     53000   295.97691      214.9242      -2325.3642     -1942.1864    
     53500   312.99057      2593.622      -2295.136      -1891.4306    
     54000   290.05857      1757.8101     -2317.5654     -1944.4303    
     54500   302.79061      131.97253     -2332.6498     -1942.8838    
     55000   309.67561      3410.4742     -2283.8608     -1884.7045    
     55500   295.50476      511.96604     -2301.4074     -1921.6163    
     56000   284.16294      583.44503     -2332.013      -1966.4193    
     56500   284.7079      -241.72369     -2338.1252     -1971.1209    
     57000   295.11479      1271.5027     -2311.5485     -1931.0378    
     57500   297.06008      1206.9363     -2273.9815     -1891.8649    
     58000   300.94519      2088.0504     -2325.5302     -1937.5904    
     58500   297.25395      1647.287      -2315.13       -1931.0375    
     59000   309.84945      1949.3956     -2311.6363     -1913.8567    
     59500   307.57171      747.43053     -2311.389      -1914.9919    
     60000   310.96563      874.59985     -2306.8813     -1906.1773    
     60500   294.52091      232.50743     -2323.787      -1943.1247    
     61000   291.08337      2609.9548     -2325.2475     -1948.8411    
     61500   309.77216      1382.1621     -2298.122      -1897.7121    
     62000   312.61397      387.94237     -2336.165      -1933.0197    
     62500   298.00024      579.51959     -2312.6516     -1929.0655    
     63000   295.77982      876.25952     -2307.861      -1926.9283    
     63500   299.10684     -445.09371     -2317.5768     -1932.6801    
     64000   307.79465      1508.2172     -2281.7695     -1883.6577    
     64500   312.79655      1782.7963     -2318.4522     -1914.9395    
     65000   297.56406      618.45114     -2328.2503     -1943.3264    
     65500   312.8152       304.61867     -2358.2457     -1955.1313    
     66000   296.49687      1323.7843     -2290.9885     -1909.3335    
     66500   311.00634      1774.6302     -2325.3312     -1925.1144    
     67000   292.81379      955.47414     -2321.9234     -1943.1068    
     67500   296.26636      2031.6578     -2295.0028     -1913.4452    
     68000   313.1375       772.88876     -2283.5493     -1878.907     
     68500   299.3062      -650.33521     -2313.4035     -1926.2894    
     69000   279.02193      2738.4928     -2280.8731     -1920.7822    
     69500   301.25186      613.74355     -2273.2839     -1884.3938    
     70000   289.97484     -39.379135     -2312.7485     -1940.3406    
     70500   310.91916      872.44996     -2317.4277     -1915.2572    
     71000   295.7262      -98.494885     -2337.8768     -1954.8824    
     71500   297.21788      184.21435     -2340.7478     -1957.9344    
     72000   292.11958      2929.387      -2296.6692     -1921.9187    
     72500   314.35473      1033.0605     -2332.4657     -1927.4153    
     73000   289.09556      2011.913      -2315.4777     -1942.9681    
     73500   304.85778      1251.8075     -2328.9851     -1936.0362    
     74000   281.30719      719.17714     -2295.954      -1933.5027    
     74500   313.07991      1090.9498     -2292.2194     -1887.1392    
     75000   303.43264      1033.8307     -2328.1822     -1936.6622    
     75500   304.92628     -346.22069     -2322.6954     -1929.5401    
     76000   305.6854       1515.813      -2277.1756     -1882.7772    
     76500   311.7922      -87.41847      -2346.8735     -1944.4371    
     77000   288.60429     -3.1250939     -2309.5159     -1937.842     
     77500   293.24416      626.97557     -2291.59       -1913.352     
     78000   280.14069      1343.5944     -2332.305      -1969.9109    
     78500   293.6299       764.74549     -2312.5844     -1932.4819    
     79000   288.36587     -0.040553366   -2294.6091     -1922.1236    
     79500   277.19452      575.16387     -2328.3248     -1969.4428    
     80000   297.51914      2558.6429     -2322.8695     -1938.8769    
     80500   307.21597      1762.4246     -2307.7822     -1910.5323    
     81000   320.0639       1098.9523     -2321.3522     -1908.1699    
     81500   297.00917     -527.40079     -2335.9848     -1952.9927    
     82000   312.45166      415.82893     -2339.8278     -1937.1252    
     82500   306.4832       1817.2415     -2309.8023     -1913.2163    
     83000   288.45801      1229.1359     -2330.7614     -1958.9309    
     83500   276.17302     -120.62942     -2351.8453     -1997.0686    
     84000   298.02308      2805.5105     -2336.5106     -1952.9966    
     84500   312.56464      1326.7213     -2317.34       -1914.3351    
     85000   293.37527      12.335219     -2283.7368     -1904.3553    
     85500   304.30632      1768.5302     -2334.0543     -1941.4587    
     86000   273.15123      1869.2124     -2314.6857     -1962.1517    
     86500   300.88228      254.26223     -2297.4259     -1909.1293    
     87000   313.00496     -143.72623     -2332.1599     -1928.3399    
     87500   295.77276      1667.9811     -2335.9505     -1953.0227    
     88000   307.94389     -138.88888     -2318.7277     -1922.01      
     88500   307.68776      973.56949     -2265.3558     -1868.6928    
     89000   310.37543      1394.0578     -2299.6505     -1901.4227    
     89500   287.08431      1978.5519     -2305.8932     -1937.4656    
     90000   283.69889      847.7453      -2321.8804     -1955.8315    
     90500   293.65162     -472.73607     -2280.941      -1901.4844    
     91000   279.95238      770.61096     -2305.1066     -1943.4339    
     91500   300.63938      912.96139     -2328.4719     -1940.4441    
     92000   291.55404      443.35187     -2302.2079     -1926.3105    
     92500   310.8466       2792.9738     -2275.5223     -1873.9982    
     93000   305.55718      713.15156     -2322.0891     -1927.9456    
     93500   300.56326      737.57335     -2321.547      -1933.0368    
     94000   309.79425      2900.3373     -2303.0035     -1902.1404    
     94500   293.52937      13.124307     -2330.9978     -1950.8893    
     95000   295.57251     -82.563852     -2312.6685     -1930.0674    
     95500   316.50127      1430.4877     -2310.2975     -1904.0794    
     96000   280.40308     -86.425419     -2296.4266     -1939.1285    
     96500   306.14763      370.05744     -2335.6548     -1944.8562    
     97000   308.24723      3174.4334     -2319.7138     -1925.9928    
     97500   300.32647      1228.3164     -2295.8162     -1912.4606    
     98000   286.49946      1135.1759     -2324.6048     -1959.2522    
     98500   317.20329     -122.93946     -2332.9811     -1927.3589    
     99000   284.93805      951.50681     -2285.0498     -1921.1905    
     99500   303.23636      809.84613     -2352.5666     -1964.3925    
    100000   294.07326      488.39245     -2330.7266     -1954.7477    
    100500   308.26323      194.53549     -2324.7706     -1930.2803    
    101000   312.12568      1046.6603     -2328.3161     -1928.6036    
    101500   315.07282      1501.2067     -2329.1538     -1925.4223    
    102000   297.61241      896.11194     -2338.2913     -1956.0469    
    102500   270.92972      1780.0636     -2298.8828     -1952.5068    
    103000   293.29881      143.15126     -2288.1462     -1912.5182    
    103500   303.16958      2415.6311     -2307.3441     -1918.925     
    104000   291.02422      754.38158     -2344.1976     -1971.4019    
    104500   301.26386      1087.7317     -2314.003      -1927.7921    
    105000   303.62725      1064.5238     -2303.6284     -1915.8349    
    105500   296.82322      752.61136     -2288.3928     -1907.4118    
    106000   301.17099      2337.613      -2287.1359     -1901.1004    
    106500   283.91853      1424.5359     -2316.9012     -1952.9788    
    107000   281.63064      877.25303     -2311.0364     -1949.8593    
    107500   320.23346      1582.8146     -2293.8255     -1883.7709    
    108000   311.62023     -204.20543     -2305.1112     -1905.0297    
    108500   288.86167      731.04414     -2322.5185     -1950.5305    
    109000   296.97171      1559.4395     -2300.7025     -1919.165     
    109500   301.30847      414.0048      -2291.7501     -1905.1893    
    110000   293.36684      1042.0367     -2325.5917     -1950.1216    
    110500   305.74036     -13.248552     -2324.8322     -1932.964     
    111000   299.40539      648.68258     -2305.5987     -1921.9631    
    111500   315.23917     -240.14089     -2343.4        -1938.9498    
    112000   283.26336      1617.2943     -2319.0272     -1955.3425    
    112500   310.65477      2220.157      -2306.5555     -1908.4127    
    113000   306.07252      1456.6981     -2323.8814     -1930.4845    
    113500   300.17172      686.02211     -2327.2237     -1941.5019    
    114000   320.07524      1433.5394     -2338.1827     -1926.6885    
    114500   293.33022      1467.0926     -2255.5704     -1878.6368    
    115000   305.84985      826.26945     -2303.0085     -1910.3107    
    115500   292.87875      1422.1068     -2296.4047     -1920.4684    
    116000   321.80623     -1025.655      -2303.0399     -1889.9057    
    116500   297.44184      431.41842     -2313.2585     -1931.0365    
    117000   302.974        310.68896     -2322.6765     -1933.7834    
    117500   312.45752      1358.5273     -2294.6906     -1893.0056    
    118000   298.25141     -361.32989     -2297.0426     -1913.2793    
    118500   300.32456      876.236       -2316.407      -1930.9527    
    119000   289.28185      1697.2669     -2314.2757     -1945.2853    
    119500   307.63644      2442.3628     -2298.9503     -1905.5595    
    120000   286.71624      2009.2747     -2290.8411     -1921.7716    
    120500   300.23091      545.12377     -2337.0477     -1950.8839    
    121000   306.76619      1355.2821     -2291.056      -1896.8251    
    121500   304.4878       2681.6831     -2328.1148     -1936.306     
    122000   289.05224      812.52404     -2318.1009     -1945.1096    
    122500   301.7145       2441.1761     -2314.0156     -1925.2321    
    123000   295.8976       1307.8265     -2311.3032     -1931.0174    
    123500   295.96168      4061.2399     -2314.1893     -1933.1229    
    124000   290.26643      193.36071     -2324.3204     -1951.8495    
    124500   323.14181      2010.2437     -2323.2998     -1906.6488    
    125000   292.77674     -252.40331     -2310.9546     -1933.5267    
    125500   298.91135      447.50973     -2328.6229     -1942.8263    
    126000   299.59561     -227.0809      -2294.2194     -1907.0382    
    126500   293.7267       423.78946     -2320.5169     -1940.432     
    127000   302.66173      618.48977     -2351.8049     -1960.868     
    127500   322.32788      2816.1096     -2323.2698     -1906.2164    
    128000   301.26361      617.54042     -2305.2978     -1915.4903    
    128500   299.83505      778.28609     -2353.6521     -1966.9853    
    129000   278.66514      1323.1994     -2312.2171     -1952.9492    
    129500   302.30003      749.75738     -2316.1622     -1926.2104    
    130000   301.67021      2930.569      -2295.942      -1905.4743    
    130500   306.30328     -392.60864     -2308.8551     -1913.4234    
    131000   300.12603      851.32333     -2335.6984     -1950.0898    
    131500   324.28645      1520.5273     -2314.5258     -1894.8987    
    132000   297.67778      2088.4314     -2296.9311     -1911.7244    
    132500   292.53331      2837.5206     -2304.6574     -1926.7201    
    133000   281.01212      229.42294     -2318.9473     -1957.1456    
    133500   277.41949      693.76681     -2310.8092     -1953.1378    
    134000   287.05113      987.61852     -2277.231      -1907.496     
    134500   304.92902     -247.42219     -2329.7192     -1935.3324    
    135000   288.31912      820.05623     -2336.5965     -1965.7188    
    135500   295.36119      1032.2898     -2295.4577     -1914.6286    
    136000   300.97223     -619.55408     -2273.2492     -1884.7936    
    136500   280.94665      1236.0156     -2284.4352     -1920.5526    
    137000   295.82274      1394.2248     -2341.0548     -1958.1853    
    137500   296.27728      925.34195     -2307.3331     -1928.1471    
    138000   295.89346      1046.6352     -2287.1428     -1908.0407    
    138500   293.0225       69.323836     -2324.8841     -1948.3682    
    139000   299.68408      704.59615     -2374.0725     -1988.4554    
    139500   305.05143      462.50911     -2322.8555     -1930.7928    
    140000   329.95598     -241.89157     -2332.4309     -1908.5014    
    140500   280.10293      1535.4554     -2317.218      -1956.1303    
    141000   300.3948       814.56058     -2314.7559     -1928.9453    
    141500   316.04341      1096.1153     -2284.6543     -1878.715     
    142000   300.92417      384.02165     -2319.1202     -1932.0175    
    142500   306.16278     -55.440167     -2319.4704     -1925.2012    
    143000   282.43674     -414.97687     -2246.5992     -1884.5159    
    143500   320.47953      968.51483     -2325.9256     -1913.2901    
    144000   284.24985      1004.0546     -2300.9628     -1937.0056    
    144500   301.77063      862.00264     -2316.4622     -1927.6715    
    145000   293.38737      911.00823     -2263.2509     -1885.9054    
    145500   289.94568     -94.877456     -2308.7124     -1934.5116    
    146000   286.31832      454.96177     -2305.9826     -1936.7735    
    146500   312.7091       1172.0689     -2294.2473     -1891.9176    
    147000   325.19409      1681.0115     -2287.4921     -1870.4126    
    147500   278.51812      1844.5015     -2291.1202     -1933.8155    
    148000   303.25623      1025.6689     -2297.09       -1907.6346    
    148500   317.22504      553.41467     -2292.8008     -1882.2929    
    149000   303.88951      1268.7774     -2339.1944     -1946.1158    
    149500   294.10576      1598.782      -2317.7855     -1938.264     
    150000   315.63648      2011.4328     -2291.337      -1882.9206    
    150500   305.3924       981.3549      -2308.1422     -1916.2178    
    151000   293.05169      1040.5095     -2299.3329     -1921.5917    
    151500   311.70389      1721.3026     -2309.709      -1908.7292    
    152000   286.81182      1345.2929     -2309.8785     -1940.3864    
    152500   292.27876      1380.0265     -2329.3135     -1951.1326    
    153000   294.2937       54.071365     -2287.8647     -1907.665     
    153500   299.22265      708.35345     -2308.4492     -1921.2335    
    154000   284.88459     -1081.8597     -2306.3826     -1937.7013    
    154500   298.79651     -396.01914     -2274.0165     -1889.1955    
    155000   288.76748      2499.0923     -2307.6412     -1935.1121    
    155500   286.58284      335.63744     -2319.3232     -1949.3855    
    156000   301.35932      1148.0207     -2322.8446     -1933.7991    
    156500   302.38842      1457.4771     -2327.6035     -1937.897     
    157000   282.95646      1357.7871     -2329.684      -1964.917     
    157500   310.70876      1564.6668     -2314.2102     -1911.9341    
    158000   294.83426      396.40951     -2317.2589     -1936.4573    
    158500   318.17369      54.033419     -2291.5656     -1881.246     
    159000   334.06469     -1223.3863     -2333.4975     -1901.4871    
    159500   299.9866      -683.63445     -2325.9596     -1938.6475    
    160000   303.30158     -95.610853     -2299.6079     -1906.946     
    160500   313.48758      2078.0629     -2290.0764     -1884.1847    
    161000   301.57866      1904.1372     -2302.9899     -1912.387     
    161500   299.62625      2046.5585     -2317.8913     -1930.7354    
    162000   316.01972      1747.2453     -2287.8647     -1879.8271    
    162500   290.67956      866.42646     -2287.0394     -1911.8113    
    163000   303.508        1646.0954     -2319.8523     -1928.3999    
    163500   286.72455      233.53305     -2333.062      -1962.1778    
    164000   288.92213      456.84956     -2353.8616     -1981.6878    
    164500   314.55461      1327.3377     -2329.3501     -1923.2017    
    165000   304.70431      1684.0553     -2320.5632     -1925.9186    
    165500   278.17295     -712.73457     -2335.2685     -1975.0513    
    166000   291.87247      1507.7864     -2314.6046     -1938.2081    
    166500   303.88523     -633.2895      -2326.1238     -1933.4138    
    167000   306.64028      2404.0664     -2295.8047     -1900.0929    
    167500   316.62442      2212.678      -2287.7867     -1877.9567    
    168000   309.83993      677.08902     -2335.0861     -1935.7234    
    168500   297.63965      73.137998     -2321.7022     -1937.7961    
    169000   316.8678       2108.3186     -2328.2314     -1918.2901    
    169500   301.74225      378.3253      -2269.5409     -1879.8148    
    170000   292.0167       1939.6938     -2301.5127     -1924.8824    
    170500   304.55496      1543.3417     -2345.292      -1951.8654    
    171000   311.92298      1481.5204     -2303.3447     -1901.0863    
    171500   317.30377     -139.84555     -2320.6999     -1911.604     
    172000   294.64036      1930.9466     -2327.945      -1948.0356    
    172500   310.88665     -124.3632      -2335.6882     -1933.0865    
    173000   305.38228      780.35079     -2309.8857     -1915.8239    
    173500   290.69611      385.63263     -2305.8827     -1929.1973    
    174000   324.65031      2280.8346     -2314.9409     -1894.3543    
    174500   319.12012      711.09073     -2302.9173     -1891.9223    
    175000   290.25087      613.1313      -2312.9014     -1938.5363    
    175500   310.467       -201.75414     -2349.6748     -1948.9591    
    176000   293.36249      2501.935      -2306.8553     -1927.6885    
    176500   309.22823      2365.1819     -2299.2205     -1899.6678    
    177000   301.63841      982.47482     -2346.6706     -1957.8587    
    177500   300.19552      41.875237     -2325.0527     -1937.299     
    178000   310.17988      213.24908     -2305.3362     -1904.0847    
    178500   298.53095      1009.5832     -2324.0317     -1938.6563    
    179000   288.60835      1318.1534     -2327.6924     -1954.008     
    179500   308.6375       1112.457      -2312.1233     -1913.8412    
    180000   300.14485      1609.3737     -2302.7918     -1916.3222    
    180500   291.89195      636.46525     -2337.467      -1959.5366    
    181000   312.12825     -131.82071     -2346.1864     -1941.9957    
    181500   319.79093      396.97167     -2305.3078     -1892.0638    
    182000   309.17197      1162.299      -2338.7672     -1939.3767    
    182500   306.99162      483.68246     -2340.7751     -1944.94      
    183000   304.33169      721.71709     -2297.0837     -1904.3014    
    183500   305.69573      2636.5233     -2238.2043     -1842.1368    
    184000   321.45587      2205.034      -2321.7182     -1907.0587    
    184500   306.6396      -216.94251     -2330.9696     -1933.8933    
    185000   294.05143      1659.7913     -2305.8041     -1927.7314    
    185500   290.42114      842.04778     -2336.1279     -1961.1171    
    186000   299.69857      3338.0911     -2298.8561     -1914.8852    
    186500   304.07975      1390.128      -2300.0924     -1909.2672    
    187000   290.95598      1518.136      -2338.4619     -1963.8481    
    187500   303.41405     -622.99087     -2347.5212     -1958.5809    
    188000   302.91516      1422.8095     -2304.8596     -1914.148     
    188500   318.93536      2117.7219     -2286.1661     -1875.6025    
    189000   309.42026      2609.3854     -2276.4855     -1878.1769    
    189500   312.39075      1688.5381     -2330.9918     -1929.9966    
    190000   278.43387      1039.8489     -2312.344      -1953.7325    
    190500   311.73867      3047.6634     -2305.6895     -1903.8319    
    191000   293.64902     -1830.7394     -2315.9219     -1938.0111    
    191500   295.46213      1695.2252     -2318.1018     -1937.717     
    192000   305.38238      1164.3072     -2322.4907     -1928.0374    
    192500   304.0077       1634.0068     -2339.1106     -1948.5373    
    193000   274.52024      2481.1808     -2322.0223     -1970.2111    
    193500   305.45304      2633.3007     -2328.4208     -1934.4958    
    194000   303.32311      605.45909     -2310.2064     -1919.6881    
    194500   316.65842      1610.7619     -2289.3098     -1882.6241    
    195000   284.43373      1432.0821     -2303.2167     -1936.9106    
    195500   313.83306      658.85302     -2338.688      -1935.3854    
    196000   296.3635       1139.1985     -2262.3567     -1880.9723    
    196500   302.53148      2270.4351     -2295.5559     -1905.8181    
    197000   301.49218      2350.2211     -2328.152      -1938.1738    
    197500   309.07737      1680.1355     -2340.8487     -1944.0092    
    198000   309.19246      828.72523     -2286.061      -1888.936     
    198500   297.06909      1037.8401     -2297.5286     -1915.8877    
    199000   287.50103      1466.3204     -2336.9715     -1966.086     
    199500   305.63392      1457.6216     -2312.3075     -1920.3785    
    200000   297.42873      1783.0147     -2313.703      -1929.8819    
    200500   306.64468      1961.7823     -2340.4971     -1945.1238    
    201000   299.29477      885.74092     -2331.8739     -1945.742     
    201500   307.37955      656.02384     -2317.1688     -1919.1733    
    202000   313.75202      1207.1145     -2292.2392     -1888.8589    
    202500   310.02893      457.45602     -2338.4779     -1940.8914    
    203000   296.62022      377.36097     -2322.8018     -1942.4658    
    203500   322.35952     -621.3305      -2327.0321     -1911.9073    
    204000   294.55363      1485.0374     -2256.3489     -1877.6739    
    204500   290.99603     -152.32261     -2314.6435     -1939.6645    
    205000   310.00097      448.65015     -2308.2275     -1906.9938    
    205500   310.93347      884.34103     -2284.0232     -1884.8052    
    206000   297.87405     -301.80753     -2338.457      -1954.5458    
    206500   290.13556      876.52215     -2306.5031     -1934.2909    
    207000   298.1527       146.02671     -2290.1148     -1903.8508    
    207500   316.40492      1257.8072     -2349.7231     -1940.2248    
    208000   299.82344     -106.67567     -2344.8265     -1956.6408    
    208500   291.01191      1330.0812     -2294.6306     -1917.9551    
    209000   309.62525      1632.3359     -2313.027      -1913.8959    
    209500   308.87005      149.20876     -2353.8924     -1955.2918    
    210000   294.20955      1846.7106     -2335.313      -1954.5929    
    210500   304.08497     -390.85565     -2295.7055     -1903.4331    
    211000   295.69325     -1857.7765     -2319.9138     -1938.0433    
    211500   312.98606      542.80155     -2302.8004     -1898.8642    
    212000   298.54199     -157.44017     -2286.4015     -1900.045     
    212500   303.24581      710.33772     -2335.2329     -1943.9098    
    213000   303.5309       1322.3186     -2321.1977     -1928.7292    
    213500   319.0086       2681.0438     -2281.0796     -1869.2137    
    214000   291.29222      1345.1683     -2302.1922     -1926.3413    
    214500   296.3256       1425.194      -2327.5516     -1945.2426    
    215000   315.16625      1152.9435     -2324.9996     -1916.8482    
    215500   307.80041      478.99686     -2292.0336     -1895.5457    
    216000   293.69603      912.65238     -2336.132      -1957.117     
    216500   304.23215      1326.6756     -2321.7915     -1929.0071    
    217000   280.91356      271.94277     -2267.8774     -1905.4655    
    217500   316.1304       1235.7889     -2282.4615     -1874.8359    
    218000   294.5978       1759.9292     -2300.0433     -1920.1027    
    218500   287.64308      1458.9456     -2321.6731     -1949.3494    
    219000   281.50669      595.46953     -2344.5511     -1981.9308    
    219500   327.46393      289.70052     -2345.2582     -1922.1609    
    220000   293.82971     -213.87036     -2328.7971     -1949.6628    
    220500   277.09905      328.26133     -2336.9041     -1977.8868    
    221000   293.33473      1724.0023     -2292.7849     -1915.4831    
    221500   293.53801      896.04023     -2303.8661     -1924.7521    
    222000   295.12542      1885.9011     -2308.1264     -1928.2615    
    222500   294.79452      62.783115     -2334.3973     -1953.9637    
    223000   314.50038     -948.85301     -2336.8884     -1931.5009    
    223500   314.14296      1850.8226     -2326.5756     -1920.1396    
    224000   289.16253     -315.08914     -2296.639      -1922.0397    
    224500   299.71082      435.77977     -2305.4767     -1917.2625    
    225000   306.30657      1393.0791     -2346.8089     -1950.3552    
    225500   278.36458      2456.5217     -2352.6861     -1992.4462    
    226000   306.49518      1546.442      -2325.6264     -1929.6942    
    226500   303.85127      840.72361     -2294.9635     -1903.3105    
    227000   303.54852      1803.2174     -2295.4832     -1903.5024    
    227500   316.81304      227.68797     -2354.769      -1945.9582    
    228000   283.96301     -163.96521     -2317.4328     -1950.862     
    228500   309.33938     -301.62714     -2297.4122     -1897.4331    
    229000   285.90744      943.30859     -2296.2584     -1927.0501    
    229500   299.2786      -14.708401     -2336.7196     -1951.4458    
    230000   288.39973      308.62914     -2294.9771     -1923.5531    
    230500   292.65402      889.89835     -2288.0026     -1912.4023    
    231000   307.84794      522.47552     -2326.3002     -1929.2227    
    231500   280.59955      216.13147     -2322.6787     -1962.0605    
    232000   318.4441       1935.7674     -2325.8232     -1915.2704    
    232500   291.3003       612.94111     -2309.4893     -1933.9375    
    233000   309.58046      0.84149582    -2286.9519     -1887.9657    
    233500   299.63565      269.17143     -2289.3503     -1903.127     
    234000   305.48838      482.11689     -2331.0822     -1936.7588    
    234500   297.75257      724.00063     -2347.0892     -1961.41      
    235000   284.67917      570.27453     -2347.9065     -1980.1685    
    235500   305.74452     -1094.2894     -2312.9281     -1919.1514    
    236000   310.14782     -510.59193     -2320.4189     -1920.3689    
    236500   299.86392      1978.3302     -2353.4858     -1966.4927    
    237000   291.58581      563.98126     -2309.4748     -1932.9371    
    237500   290.5133       1411.9911     -2287.8511     -1913.0628    
    238000   296.3545       314.09648     -2328.6801     -1945.8653    
    238500   278.92075      257.09168     -2345.0086     -1984.9779    
    239000   304.45518      2347.4        -2344.3092     -1951.161     
    239500   316.41597      2546.1108     -2324.2937     -1914.6408    
    240000   279.00489     -431.37102     -2318.3503     -1958.2585    
    240500   297.59052      288.65642     -2330.6663     -1945.7075    
    241000   306.79601     -448.52951     -2321.698      -1924.8637    
    241500   317.09595      3215.053      -2292.8436     -1883.3937    
    242000   296.00336      1445.0445     -2261.1723     -1878.3696    
    242500   304.88647     -286.61952     -2327.8432     -1933.9458    
    243000   291.64718     -57.962328     -2337.5629     -1962.6783    
    243500   302.71918      1730.3326     -2309.6486     -1919.6837    
    244000   303.06586      843.39796     -2310.3132     -1918.0355    
    244500   282.60044      1319.3776     -2339.5845     -1973.4747    
    245000   291.72853     -201.41174     -2321.2194     -1943.3398    
    245500   312.2547       2332.0796     -2331.4863     -1929.6859    
    246000   313.06013      1600.3552     -2307.8713     -1904.0786    
    246500   331.06691      478.44321     -2316.0274     -1889.8298    
    247000   301.82245      847.34081     -2321.9086     -1932.9842    
    247500   301.11365      2447.964      -2323.9647     -1935.5804    
    248000   292.67908      1082.781      -2355.9017     -1978.8246    
    248500   310.54876      1054.2347     -2349.2901     -1948.0457    
    249000   308.0362       80.093175     -2338.2712     -1940.3045    
    249500   289.68424     -500.9482      -2353.4568     -1980.5255    
    250000   285.60435      2361.7426     -2321.4446     -1953.5433    
    250500   314.19608     -169.88212     -2333.528      -1927.8454    
    251000   281.74728      973.64296     -2300.015      -1936.4229    
    251500   288.77879     -187.85905     -2310.9007     -1936.9689    
    252000   300.74549      672.18732     -2296.6412     -1908.8228    
    252500   317.45437     -824.2042      -2285.8388     -1876.4111    
    253000   294.5016       241.21329     -2285.6169     -1906.184     
    253500   299.55612      1061.1585     -2329.4016     -1942.6879    
    254000   288.13361      283.51462     -2349.3684     -1976.065     
    254500   314.80251      1658.4075     -2342.8603     -1935.9112    
    255000   300.96615     -170.16958     -2310.2637     -1921.8511    
    255500   301.3172      -173.4917      -2338.2119     -1949.8082    
    256000   304.93699      1234.3393     -2358.4811     -1963.8695    
    256500   303.48654      1743.036      -2300.4082     -1908.3406    
    257000   295.43017      162.7216      -2298.4207     -1917.16      
    257500   271.40488      977.14531     -2329.1646     -1977.6405    
    258000   285.64288      1102.4579     -2317.4831     -1948.5686    
    258500   293.50453      366.16429     -2301.5848     -1923.2105    
    259000   321.60709      743.06725     -2289.6849     -1874.9339    
    259500   281.42794      1409.8097     -2295.9137     -1932.9348    
    260000   300.35823      1375.9526     -2314.4346     -1925.3968    
    260500   312.08804      1229.3727     -2299.6197     -1896.4998    
    261000   321.08349      1007.3922     -2274.737      -1859.9461    
    261500   290.38504      1366.8419     -2297.8878     -1921.8737    
    262000   293.10072      642.80684     -2319.5878     -1941.016     
    262500   292.6841       90.294804     -2324.1206     -1947.2352    
    263000   305.54291      1456.3362     -2300.209      -1905.7815    
    263500   297.86255      298.02145     -2336.8188     -1952.5766    
    264000   286.12039      1437.2712     -2309.7588     -1939.0675    
    264500   290.76101      2130.9904     -2294.7401     -1919.5592    
    265000   293.68478      2393.5069     -2301.3591     -1922.6404    
    265500   284.4525       456.05062     -2320.9449     -1953.7794    
    266000   311.60215      381.01711     -2307.2768     -1904.4597    
    266500   297.08737     -20.25628      -2305.0268     -1921.8043    
    267000   293.78313      317.33384     -2346.7706     -1967.8117    
    267500   301.80246      360.57459     -2307.839      -1920.7635    
    268000   299.19613      399.56436     -2312.4154     -1926.4258    
    268500   284.07446     -691.4227      -2334.8378     -1968.3816    
    269000   303.85943      1447.1303     -2326.8803     -1935.3891    
    269500   301.83344      323.95523     -2297.1855     -1907.694     
    270000   287.50036      1524.0505     -2323.5121     -1954.0218    
    270500   297.91125      678.44483     -2327.0289     -1945.1762    
    271000   281.22713      951.67707     -2293.3178     -1931.2279    
    271500   308.31827      902.37701     -2274.1545     -1878.4331    
    272000   306.16217      1614.7941     -2321.7576     -1928.0666    
    272500   305.00825      1110.4315     -2332.0127     -1939.6874    
    273000   300.59627      993.60962     -2304.786      -1917.8531    
    273500   302.52854      70.715624     -2266.0093     -1876.4326    
    274000   303.50258      889.32613     -2319.0843     -1929.8752    
    274500   290.64998      2149.5213     -2303.5015     -1929.8751    
    275000   314.41962      226.86406     -2284.3821     -1879.5754    
    275500   295.63518      1931.1367     -2308.2667     -1926.4583    
    276000   302.103        112.10736     -2336.184      -1947.5404    
    276500   292.90592      486.9986      -2269.7446     -1894.4666    
    277000   283.20981     -94.452721     -2272.3259     -1908.4082    
    277500   295.35677      1204.7431     -2299.787      -1919.4125    
    278000   305.40519     -742.99623     -2310.1756     -1917.0167    
    278500   298.89017      1157.5017     -2285.6968     -1901.356     
    279000   295.23625     -66.946799     -2284.7257     -1904.8315    
    279500   298.80714      2112.1999     -2334.8762     -1950.5617    
    280000   302.82062      1794.6026     -2334.7904     -1945.6255    
    280500   305.24424      2286.5526     -2320.8468     -1928.1527    
    281000   289.94161     -279.75032     -2322.4658     -1949.1862    
    281500   275.98169      1461.3778     -2349.1818     -1994.5487    
    282000   292.50014      582.30437     -2315.2208     -1938.4008    
    282500   302.57725      1461.3335     -2289.7259     -1899.9162    
    283000   301.06719      1176.3078     -2298.7748     -1911.776     
    283500   285.80779      525.58715     -2313.6642     -1946.5147    
    284000   291.85005      1506.2748     -2281.4917     -1907.5764    
    284500   310.31312      1620.2502     -2308.9334     -1909.4866    
    285000   297.08663     -336.00039     -2301.0035     -1918.8377    
    285500   297.44923      891.89596     -2328.5308     -1946.6485    
    286000   299.73162      2171.8666     -2367.6008     -1981.5206    
    286500   299.38374      686.7243      -2305.4567     -1920.5424    
    287000   281.71763      389.32093     -2296.9116     -1935.6179    
    287500   271.2295       1320.533      -2338.7509     -1989.1954    
    288000   308.45076      2577.2281     -2329.6172     -1932.6374    
    288500   313.81903      1727.2893     -2300.8501     -1897.3076    
    289000   290.56968     -868.31132     -2297.6079     -1923.1553    
    289500   300.09308      830.61019     -2344.5928     -1957.3813    
    290000   293.3008       822.61243     -2278.515      -1899.7248    
    290500   293.61798      1161.8776     -2287.5162     -1909.086     
    291000   300.286        1009.0274     -2333.0586     -1946.4494    
    291500   303.86767      303.09746     -2315.7261     -1924.4303    
    292000   331.9285       583.75014     -2293.4232     -1864.1449    
    292500   319.48616      1542.4606     -2318.1125     -1905.0754    
    293000   302.72889      265.96598     -2324.9137     -1933.0763    
    293500   313.05467      326.64575     -2335.8303     -1931.1406    
    294000   285.19874      1453.7393     -2325.1577     -1957.3456    
    294500   340.43952      2722.6796     -2351.0758     -1912.4567    
    295000   312.514        990.71783     -2320.6474     -1919.0604    
    295500   287.15617      327.54234     -2342.6323     -1972.3488    
    296000   289.66511      985.01766     -2326.0838     -1952.9159    
    296500   303.64348      482.10375     -2322.5991     -1932.033     
    297000   281.32056      1235.6916     -2317.0515     -1954.5041    
    297500   302.74348      1470.0549     -2359.3514     -1967.6898    
    298000   320.47532      1610.6987     -2335.1923     -1920.9773    
    298500   288.33427     -517.89317     -2323.4064     -1951.0933    
    299000   284.75295      387.70572     -2356.0504     -1988.4615    
    299500   300.03661      350.38916     -2331.0313     -1944.6262    
    300000   290.04918      1054.1801     -2320.0798     -1946.6996    
    300500   291.6719       723.03535     -2268.6047     -1891.5138    
    301000   302.78509     -325.56308     -2304.8914     -1913.4699    
    301500   308.0077       1452.3209     -2325.6753     -1927.219     
    302000   285.08995     -435.85641     -2319.251      -1953.1499    
    302500   320.32517     -199.87125     -2315.8964     -1901.8154    
    303000   295.43273      473.80529     -2307.3795     -1924.7409    
    303500   300.10937      1462.0347     -2315.7767     -1927.7498    
    304000   312.7195       1889.2715     -2348.3117     -1943.351     
    304500   283.4206      -452.29955     -2343.5361     -1978.4239    
    305000   316.36189      602.63891     -2323.8196     -1915.095     
    305500   301.69701      1886.43       -2282.0456     -1893.0293    
    306000   308.43321      1126.2151     -2343.7715     -1944.6599    
    306500   301.15975      688.12174     -2322.2313     -1933.519     
    307000   299.17003     -701.29457     -2302.3286     -1915.7657    
    307500   285.44953      1238.6663     -2304.4143     -1935.5549    
    308000   305.44234      1401.4165     -2368.8171     -1973.6085    
    308500   305.21235      359.01408     -2329.7625     -1934.4671    
    309000   300.75773      816.39654     -2310.5392     -1922.2333    
    309500   312.26034      263.95594     -2333.4596     -1930.3108    
    310000   305.9708      -136.46741     -2349.1877     -1954.6058    
    310500   309.79414     -2.4217128     -2297.0718     -1897.7373    
    311000   289.53992      893.89997     -2307.1067     -1932.0358    
    311500   308.42237      1223.5259     -2330.4236     -1930.9759    
    312000   277.58132     -266.85882     -2327.4634     -1967.7959    
    312500   281.56806      1363.8854     -2334.6843     -1970.0628    
    313000   304.83859      840.27936     -2317.6049     -1922.8986    
    313500   297.33538      185.84283     -2318.3685     -1933.2341    
    314000   289.08748     -50.434684     -2334.5055     -1960.1683    
    314500   311.20253     -74.337432     -2309.3752     -1907.7716    
    315000   311.70622      1096.8682     -2327.2504     -1925.3118    
    315500   278.48427      1303.4838     -2331.0069     -1973.6217    
    316000   288.82451      619.69753     -2306.9038     -1933.8878    
    316500   299.15432      930.7285      -2314.4009     -1928.7732    
    317000   293.5733       2184.6815     -2280.7223     -1904.2939    
    317500   310.58677      1653.2043     -2295.1954     -1896.4636    
    318000   296.32001      38.488132     -2315.0337     -1933.6896    
    318500   294.15043      1587.5359     -2302.8322     -1922.321     
    319000   317.15091     -623.22647     -2321.2936     -1914.0347    
    319500   287.42525      1488.0151     -2328.623      -1957.015     
    320000   286.35066      1032.8884     -2280.6772     -1911.9813    
    320500   313.50189     -449.25657     -2303.9545     -1900.3011    
    321000   282.29214      707.71267     -2315.3828     -1953.1722    
    321500   290.93569      216.30954     -2315.8007     -1939.3462    
    322000   305.69553      224.38639     -2308.8114     -1912.8106    
    322500   288.05008      243.6301      -2297.6079     -1924.7006    
    323000   308.69544      594.72727     -2314.7665     -1916.5221    
    323500   299.90025      1742.4856     -2277.8936     -1890.8817    
    324000   289.55407     -79.531015     -2309.5143     -1938.0379    
    324500   303.85351      586.75219     -2302.8765     -1911.3489    
    325000   314.70584      1247.2191     -2312.5412     -1908.8111    
    325500   298.66804      1271.684      -2340.7858     -1956.1192    
    326000   291.1577      -2.1088236     -2302.0313     -1927.0147    
    326500   288.7155       1754.2342     -2288.1563     -1917.616     
    327000   296.83925      570.61037     -2277.3424     -1893.8673    
    327500   317.97626      1443.7039     -2290.6849     -1879.1619    
    328000   292.06409      654.4351      -2287.8388     -1911.2066    
    328500   298.27634      184.40331     -2320.0464     -1936.5795    
    329000   295.54847      586.90154     -2361.1354     -1978.2734    
    329500   297.35408      1079.1202     -2326.9462     -1945.1041    
    330000   301.5159       2152.2167     -2310.252      -1919.768     
    330500   300.9865       2137.8061     -2307.8902     -1919.3143    
    331000   269.12147      1154.0264     -2302.9915     -1954.9098    
    331500   298.45871      1110.3375     -2282.4087     -1897.1596    
    332000   300.42131      1448.4509     -2287.8502     -1899.9819    
    332500   298.45024     -150.0023      -2338.0655     -1952.0828    
    333000   288.8004      -300.09617     -2302.2454     -1929.481     
    333500   290.53807      424.54331     -2299.781      -1923.8884    
    334000   330.1775       1354.7276     -2306.8266     -1882.1704    
    334500   298.8695       1152.2788     -2300.7756     -1916.6385    
    335000   295.15591      2418.0948     -2310.225      -1931.3543    
    335500   299.95408      205.39331     -2274.0053     -1886.7957    
    336000   304.91552      1257.5368     -2315.1797     -1921.4988    
    336500   305.73151      1133.6917     -2326.601      -1930.6458    
    337000   303.97107      1686.38       -2301.4499     -1909.3385    
    337500   307.04699      849.40571     -2277.3903     -1879.7861    
    338000   310.72776      1571.2457     -2283.0947     -1883.2603    
    338500   295.97552      713.83076     -2318.2804     -1936.002     
    339000   304.75714      457.89984     -2299.1806     -1905.7045    
    339500   320.28693      1768.8721     -2270.1248     -1856.9823    
    340000   309.3064       579.63436     -2312.4271     -1913.639     
    340500   288.75459      1493.1889     -2316.9448     -1943.1803    
    341000   274.3968       1372.6472     -2300.1461     -1946.9293    
    341500   296.66687      1481.9041     -2284.2869     -1901.5936    
    342000   302.33628      2844.9132     -2336.5799     -1948.2894    
    342500   298.27865     -868.05369     -2321.4367     -1936.7669    
    343000   300.97075     -535.45078     -2320.2803     -1933.6616    
    343500   299.59892      1703.4056     -2324.034      -1937.6172    
    344000   302.28503      1285.9952     -2310.7137     -1920.3297    
    344500   300.75164      1377.4165     -2293.8758     -1904.261     
    345000   309.714        653.62893     -2331.8021     -1930.9199    
    345500   288.2672       2445.0502     -2295.6949     -1923.4046    
    346000   319.82271      275.84808     -2288.1162     -1874.0562    
    346500   300.62948      440.74565     -2314.29       -1924.7386    
    347000   304.99227      1756.4985     -2319.2821     -1925.1531    
    347500   318.49459      841.24589     -2329.9564     -1918.7349    
    348000   288.61649      465.36994     -2327.2113     -1953.2665    
    348500   303.26741      1905.2751     -2297.72       -1905.1172    
    349000   312.68306      15.436832     -2318.7857     -1915.1278    
    349500   299.63272     -416.58823     -2346.8752     -1958.8873    
    350000   285.14182      1915.8319     -2326.1906     -1956.7477    
    350500   300.26456      1596.3173     -2306.2449     -1917.2207    
    351000   301.79503      1649.252      -2330.7704     -1939.7632    
    351500   288.05223      1406.367      -2349.5707     -1977.5486    
    352000   323.40578      1495.7641     -2343.7606     -1925.4033    
    352500   301.52533      734.41273     -2303.3087     -1913.9763    
    353000   327.05859      577.27117     -2307.736      -1885.5029    
    353500   288.13601      138.21033     -2307.6612     -1936.7237    
    354000   293.8467       1123.0884     -2315.9599     -1936.5159    
    354500   293.77713      3090.8965     -2319.8039     -1939.0706    
    355000   309.35739      1988.8338     -2299.5074     -1899.9305    
    355500   308.35456      1047.8401     -2337.8789     -1939.671     
    356000   306.20168      1307.7955     -2341.3473     -1945.7932    
    356500   302.99122      1477.6941     -2293.293      -1902.3627    
    357000   291.71183      303.93236     -2262.1367     -1885.2288    
    357500   291.37121      2425.5728     -2323.5302     -1947.3768    
    358000   292.88395      2509.6311     -2311.0174     -1932.56      
    358500   294.01073      814.08728     -2286.9481     -1906.0999    
    359000   298.40095     -264.16577     -2320.3804     -1933.8573    
    359500   315.05926     -822.8759      -2329.1382     -1921.5913    
    360000   313.30137     -2.2138006     -2306.9051     -1903.7278    
    360500   296.5206      -263.48095     -2322.9931     -1940.4828    
    361000   284.72436      376.33456     -2324.4359     -1957.7176    
    361500   304.99698      420.79564     -2302.0026     -1908.7926    
    362000   304.20878      1173.4457     -2309.1989     -1917.2759    
    362500   308.98268     -192.41064     -2361.2314     -1963.2819    
    363000   294.71846      653.03855     -2310.5701     -1928.8124    
    363500   307.87236      1733.0636     -2272.1717     -1873.6923    
    364000   305.98992      2325.8973     -2314.1708     -1919.1062    
    364500   281.81739     -785.34767     -2303.8483     -1939.8618    
    365000   299.86537      1936.5305     -2291.3459     -1904.5688    
    365500   323.41915     -243.42696     -2323.0034     -1905.155     
    366000   280.44722      1827.444      -2291.5141     -1929.6103    
    366500   295.37149      731.90634     -2321.0397     -1940.2637    
    367000   291.85345      542.00258     -2344.0723     -1966.9482    
    367500   312.56541      1729.0029     -2320.9807     -1918.1188    
    368000   285.59308      35.904164     -2296.5978     -1928.0974    
    368500   297.37492     -755.94568     -2347.9206     -1964.2548    
    369000   312.93779      464.24202     -2315.6346     -1913.7475    
    369500   314.1317       1064.6111     -2337.5329     -1934.1495    
    370000   303.82193      19.83178      -2355.3856     -1963.3867    
    370500   281.44762     -294.53613     -2297.364      -1934.6364    
    371000   301.15335      1605.3449     -2301.1415     -1911.3078    
    371500   287.29936      1005.6702     -2333.4366     -1961.6587    
    372000   299.4204       343.06546     -2331.4217     -1945.1912    
    372500   287.05617      1288.8106     -2291.1763     -1919.6292    
    373000   316.87591      636.838       -2330.7529     -1920.7076    
    373500   292.02615     -880.11091     -2346.2054     -1968.4299    
    374000   296.31189      1911.2261     -2300.8332     -1917.4438    
    374500   293.80075      1601.2846     -2300.6005     -1922.1784    
    375000   296.67621      726.2954      -2314.3187     -1932.0894    
    375500   288.6737      -47.022658     -2331.6063     -1959.443     
    376000   305.47474      171.74504     -2308.0289     -1914.2596    
    376500   306.79091      2553.3806     -2301.6548     -1905.9777    
    377000   279.35113      1450.7015     -2315.7927     -1955.6034    
    377500   284.021        2050.6307     -2340.6425     -1974.4035    
    378000   302.56004      58.372076     -2333.9125     -1943.1313    
    378500   307.74067      761.78153     -2335.2315     -1938.3126    
    379000   283.6515       703.62351     -2311.6045     -1946.0421    
    379500   291.61694      344.68469     -2311.0811     -1935.2877    
    380000   321.43869      399.27368     -2299.5119     -1884.0318    
    380500   306.92661      1679.3689     -2310.6955     -1914.3732    
    381000   289.48431      1707.125      -2306.018      -1932.2004    
    381500   295.65248      1657.0111     -2278.4924     -1897.6456    
    382000   280.20348     -400.31443     -2303.6358     -1942.5876    
    382500   286.34258      1849.135      -2324.9743     -1956.3376    
    383000   300.40605      1597.9688     -2281.9771     -1896.1613    
    383500   301.85959      930.55583     -2317.9563     -1929.0331    
    384000   287.96749     -989.50329     -2325.2098     -1952.9882    
    384500   305.65188      1714.1855     -2333.8405     -1938.3398    
    385000   305.57205      1008.1005     -2300.8031     -1907.2049    
    385500   301.5674       1894.5287     -2257.6673     -1868.6696    
    386000   304.7856       844.69181     -2317.7203     -1925.113     
    386500   285.82596      607.39775     -2303.3646     -1933.4274    
    387000   296.93872      2384.0766     -2271.8254     -1888.0072    
    387500   294.14006      872.22452     -2313.1361     -1934.2945    
    388000   307.98245      1433.0221     -2335.6432     -1937.0746    
    388500   308.46958      888.54951     -2309.4507     -1909.9636    
    389000   302.21632      150.70326     -2287.0644     -1897.3371    
    389500   302.87773      1103.6975     -2331.3537     -1940.7192    
    390000   317.15474     -657.36378     -2314.1582     -1905.9684    
    390500   296.32664      246.38503     -2321.7174     -1939.0773    
    391000   310.77993      874.27339     -2345.7776     -1944.434     
    391500   314.32853      2726.6531     -2303.9218     -1897.8015    
    392000   335.9907       1211.4478     -2271.6994     -1837.8701    
    392500   312.63134      1786.2587     -2302.2584     -1898.558     
    393000   284.01832      556.60171     -2298.818      -1932.1691    
    393500   290.16139      249.27608     -2288.7809     -1914.1882    
    394000   311.26191      1754.4311     -2279.2518     -1877.4969    
    394500   283.04206      2111.4028     -2301.6669     -1935.0563    
    395000   300.73297      605.19856     -2340.5964     -1952.7661    
    395500   322.78063      423.29453     -2345.8778     -1929.0019    
    396000   298.77089      1079.6321     -2276.8272     -1891.1517    
    396500   324.69288      637.2687      -2279.451      -1859.0549    
    397000   331.17457     -442.60482     -2349.965      -1921.5952    
    397500   298.81026      1821.5931     -2331.0486     -1944.0064    
    398000   295.04282     -464.18758     -2330.3866     -1949.4936    
    398500   285.13092      1516.5596     -2289.2695     -1921.5881    
    399000   303.30478      839.26163     -2297.4544     -1906.2807    
    399500   299.01367      738.31008     -2340.1666     -1953.2146    
    400000   301.76804      129.05923     -2318.3596     -1927.7303    
    400500   313.48773      1475.1366     -2327.4377     -1921.3619    
    401000   293.47684      811.73605     -2343.4343     -1963.3853    
    401500   322.57597      934.6318      -2332.0978     -1915.6464    
    402000   294.27468      885.06903     -2298.4668     -1918.6649    
    402500   308.30628      1297.5818     -2327.1439     -1927.9346    
    403000   307.43478      1115.1881     -2326.1092     -1928.6529    
    403500   289.5071       1671.9134     -2290.7844     -1917.426     
    404000   305.24699      971.86172     -2307.9983     -1912.9098    
    404500   298.08802      1940.6972     -2346.3766     -1960.5433    
    405000   291.90065      719.02358     -2306.6729     -1928.756     
    405500   306.25278      2122.6216     -2291.7053     -1896.8039    
    406000   306.26909     -634.76328     -2339.5471     -1944.5221    
    406500   314.89915      1540.7367     -2344.2606     -1937.6843    
    407000   322.3233      -234.77734     -2280.727      -1864.004     
    407500   301.4295       510.73461     -2278.9192     -1888.6794    
    408000   299.92559      1212.7989     -2326.5209     -1938.866     
    408500   283.47558      803.24888     -2326.235      -1959.1367    
    409000   319.05099      1694.4473     -2306.5244     -1894.7946    
    409500   318.38251      1391.2884     -2336.8392     -1924.8488    
    410000   294.47271      2235.6413     -2325.4568     -1944.2306    
    410500   306.22328      1037.4872     -2319.9508     -1925.0767    
    411000   293.71033      497.87537     -2311.0996     -1931.8796    
    411500   300.26299      706.96963     -2352.4099     -1965.1195    
    412000   281.50332      602.40467     -2347.7262     -1984.247     
    412500   288.74917      1404.6269     -2296.3524     -1925.4651    
    413000   308.31883      1027.6761     -2304.9124     -1906.9694    
    413500   300.28429      1387.94       -2331.792      -1943.9663    
    414000   309.43176      1460.5        -2340.7182     -1940.0306    
    414500   295.44367      1956.655      -2289.819      -1907.2429    
    415000   299.17984      2384.5069     -2298.8043     -1912.1674    
    415500   282.04743      185.22011     -2330.2537     -1967.7886    
    416000   306.55832      313.51795     -2320.7001     -1925.2468    
    416500   300.01747      475.86708     -2312.1401     -1926.6477    
    417000   290.20958     -56.143066     -2347.5507     -1974.8619    
    417500   315.43641      1933.7679     -2333.2466     -1925.8827    
    418000   291.12883      782.54658     -2293.1278     -1917.492     
    418500   332.75608      983.87636     -2304.6519     -1873.7822    
    419000   311.97673      1668.4431     -2327.3134     -1926.1095    
    419500   300.23232      1098.9918     -2321.4614     -1935.6469    
    420000   306.53166      871.08507     -2314.3963     -1919.0402    
    420500   300.31492      665.46092     -2296.3755     -1907.435     
    421000   293.81131      1051.5993     -2327.5183     -1947.8522    
    421500   277.87885     -358.18841     -2354.3267     -1995.5871    
    422000   274.89956      2189.5726     -2300.9194     -1945.2527    
    422500   303.00145      1578.8618     -2321.1757     -1928.7089    
    423000   282.56724      1575.644      -2343.9068     -1977.7904    
    423500   294.54529      2135.858      -2307.1572     -1927.32      
    424000   297.24935      195.89325     -2301.1941     -1917.4025    
    424500   294.67548      1085.0362     -2312.1614     -1930.8655    
    425000   307.55619      425.85332     -2373.7455     -1976.6836    
    425500   277.62025     -431.5956      -2287.6865     -1929.1187    
    426000   307.99053      1001.1445     -2322.9498     -1925.141     
    426500   295.69107      970.81826     -2325.5305     -1943.4846    
    427000   292.25039      1369.3224     -2298.4166     -1920.0959    
    427500   309.57759      869.8477      -2321.2839     -1922.3791    
    428000   296.047        630.9314      -2330.7621     -1949.1666    
    428500   295.07948      1715.9894     -2291.831      -1911.285     
    429000   295.99742      520.25412     -2290.2028     -1908.7076    
    429500   302.86203     -588.64384     -2329.0553     -1936.8013    
    430000   277.81989      1048.0972     -2340.6974     -1981.8785    
    430500   298.00384      1411.098      -2354.875      -1968.7134    
    431000   293.49304      60.937267     -2305.9994     -1925.5642    
    431500   308.20024      826.75005     -2288.2335     -1890.1708    
    432000   318.33667      1572.7128     -2305.2205     -1894.1772    
    432500   292.71432     -358.30587     -2315.3507     -1936.3975    
    433000   294.12178     -661.38582     -2301.2485     -1921.8172    
    433500   303.90843      1480.0291     -2282.2802     -1890.4687    
    434000   296.72775      2108.2227     -2328.4959     -1945.7191    
    434500   285.313        1628.5994     -2319.152      -1950.1206    
    435000   300.31697      1270.0469     -2294.7983     -1906.1543    
    435500   322.58803      1424.0831     -2287.8487     -1871.2624    
    436000   297.79707      881.85056     -2294.7975     -1910.0366    
    436500   297.28893      1656.8762     -2332.0934     -1948.2587    
    437000   290.87117     -241.89632     -2310.0869     -1933.9408    
    437500   324.0538       569.9596      -2313.203      -1893.3765    
    438000   290.99986      845.47398     -2306.5474     -1930.7848    
    438500   301.91918      1166.5895     -2313.8719     -1922.8413    
    439000   276.93803      1.7308325     -2312.8607     -1955.5379    
    439500   305.13755      1667.0726     -2352.7819     -1957.5287    
    440000   315.23399      1643.5579     -2318.1942     -1909.7495    
    440500   289.74496     -529.95281     -2333.6095     -1958.1465    
    441000   296.42956      594.72819     -2327.7643     -1943.9612    
    441500   284.75285      692.75931     -2300.808      -1933.3948    
    442000   302.61438      1090.9434     -2317.7673     -1927.0121    
    442500   315.4867      -714.8304      -2322.9482     -1914.8417    
    443000   288.69749      1476.612      -2280.3155     -1907.666     
    443500   277.88423     -179.11325     -2316.3317     -1958.9469    
    444000   291.74533      473.35072     -2301.4884     -1925.7173    
    444500   303.54732     -452.57546     -2293.5263     -1901.8773    
    445000   309.5808       1298.8135     -2344.7598     -1945.5083    
    445500   289.14678      1130.448      -2331.6583     -1957.5244    
    446000   316.05613      1603.8758     -2333.9105     -1927.9948    
    446500   311.24476      977.31064     -2300.3517     -1899.1968    
    447000   286.62416     -103.45113     -2323.4415     -1954.3204    
    447500   304.62619      1248.2085     -2322.8845     -1930.2094    
    448000   298.23577      907.35171     -2302.3314     -1916.5038    
    448500   288.1181       918.62594     -2338.3442     -1965.4508    
    449000   295.98063      677.10426     -2347.8884     -1965.7356    
    449500   314.18278      879.50786     -2337.3351     -1932.0463    
    450000   302.1053       2023.7192     -2286.9773     -1897.0145    
    450500   308.50986      489.52443     -2294.3731     -1895.9141    
    451000   298.07834     -103.26563     -2318.4524     -1932.6547    
    451500   305.30523      1376.9292     -2287.6342     -1892.1607    
    452000   329.13428      207.79854     -2301.274      -1876.2516    
    452500   298.55539      1401.8679     -2311.8097     -1926.6415    
    453000   306.02608      2651.9248     -2300.226      -1905.1642    
    453500   303.40995      1262.533      -2313.1212     -1923.5684    
    454000   295.32961     -718.30069     -2330.0369     -1949.2015    
    454500   286.19914      1739.9668     -2295.2813     -1924.4063    
    455000   319.70422      270.88948     -2284.5124     -1871.8141    
    455500   290.75983      1466.9158     -2304.0133     -1928.944     
    456000   286.42599      1279.24       -2323.894      -1955.1624    
    456500   311.98986      904.80062     -2294.3833     -1892.8475    
    457000   328.82557      1508.6234     -2335.7036     -1911.4088    
    457500   289.18514      833.53007     -2313.8131     -1940.5961    
    458000   291.71074      2163.1363     -2294.3888     -1917.8094    
    458500   315.32293      2360.7985     -2326.5486     -1919.1098    
    459000   293.19327     -189.08184     -2315.8625     -1936.2877    
    459500   301.4584       414.22551     -2312.7161     -1922.553     
    460000   303.08508      1579.3131     -2284.1574     -1892.7809    
    460500   290.93473      1355.3945     -2321.3635     -1946.2459    
    461000   299.24018     -504.7034      -2329.1112     -1943.683     
    461500   312.68783     -41.806598     -2288.2686     -1885.4695    
    462000   312.6079       405.6704      -2299.8521     -1896.9732    
    462500   272.88027     -37.853984     -2281.7278     -1930.1698    
    463000   294.40474      1288.8697     -2322.8153     -1941.7394    
    463500   282.94158      119.49509     -2341.4716     -1976.963     
    464000   296.21255      809.58569     -2317.1283     -1933.9618    
    464500   283.53253      232.1967      -2274.606      -1909.402     
    465000   331.04166      268.42879     -2286.9302     -1860.3267    
    465500   304.07801      186.94402     -2299.3185     -1906.9813    
    466000   303.82583      1379.0012     -2324.8824     -1932.7525    
    466500   310.67327      2158.8957     -2314.6261     -1913.6099    
    467000   306.01634      1822.3047     -2292.2639     -1896.6535    
    467500   306.53311     -500.23072     -2337.7856     -1942.3269    
    468000   301.72242     -133.83342     -2303.2484     -1913.8956    
    468500   311.81923      459.18076     -2315.3376     -1912.966     
    469000   289.73978      712.10691     -2291.9005     -1918.114     
    469500   278.36976     -868.80578     -2326.4872     -1966.1034    
    470000   304.4621       1180.6141     -2320.71       -1927.0911    
    470500   310.63839      1738.8636     -2309.2587     -1910.6694    
    471000   277.12542     -267.91769     -2301.8926     -1946.4274    
    471500   298.41819      2072.5894     -2332.9606     -1950.0047    
    472000   313.03917      1542.8719     -2294.7407     -1892.2331    
    472500   316.34227      291.48976     -2328.8546     -1921.6184    
    473000   274.45223      642.94222     -2302.0769     -1949.0208    
    473500   289.93146      1505.4675     -2310.8776     -1937.7266    
    474000   315.42916      564.01028     -2314.3671     -1907.9211    
    474500   307.35178      882.32916     -2282.7862     -1886.8461    
    475000   295.9854       189.64065     -2301.7642     -1920.342     
    475500   310.81484     -75.430955     -2322.3789     -1920.4313    
    476000   281.41308      1767.5614     -2331.8207     -1968.3298    
    476500   316.84507      926.66808     -2350.9843     -1941.1277    
    477000   300.05706      424.47556     -2311.6583     -1924.7812    
    477500   302.51287      475.57501     -2316.3188     -1925.9055    
    478000   325.92375      2208.8264     -2304.5746     -1884.0305    
    478500   295.13456      1133.5201     -2299.9958     -1919.4187    
    479000   303.13935      800.10784     -2321.8333     -1930.2647    
    479500   301.51281      108.88015     -2273.0175     -1884.1125    
    480000   297.33341      1006.8346     -2316.9533     -1932.2698    
    480500   297.71637      272.86333     -2324.8479     -1939.6355    
    481000   295.82892      1173.0963     -2307.0093     -1924.0058    
    481500   297.31954      1170.9746     -2276.9561     -1893.107     
    482000   292.47716      1595.2325     -2321.7563     -1944.2367    
    482500   288.32435     -552.7171      -2311.9189     -1940.1655    
    483000   315.52408      706.81742     -2314.1953     -1907.2097    
    483500   318.02814      2658.7545     -2278.9844     -1868.7062    
    484000   306.82234      1365.4907     -2318.0255     -1923.7442    
    484500   297.36301      1792.2332     -2324.057      -1940.9758    
    485000   302.24069      2253.8343     -2280.4032     -1890.6675    
    485500   310.6141       561.34863     -2301.9364     -1901.3105    
    486000   291.09958      1318.5443     -2301.262      -1924.9547    
    486500   338.08683      898.75141     -2317.4064     -1879.9226    
    487000   308.57379      1363.4851     -2297.2598     -1897.8917    
    487500   301.93799      2215.8188     -2322.5979     -1931.9889    
    488000   302.49084      164.23557     -2335.3231     -1944.8262    
    488500   295.34485      1858.0078     -2297.9164     -1916.6958    
    489000   286.20424      784.53626     -2301.3164     -1933.9427    
    489500   283.14053      503.06333     -2344.418      -1979.1608    
    490000   287.196        438.46185     -2309.1564     -1938.4723    
    490500   308.41031     -302.56262     -2341.661      -1944.1149    
    491000   288.88176      1971.4974     -2341.0927     -1968.8897    
    491500   303.65924      1715.459      -2305.1068     -1913.8825    
    492000   299.41063      83.665187     -2327.1635     -1941.12      
    492500   271.03081      1703.2622     -2334.5153     -1984.2421    
    493000   299.57972      234.52178     -2311.172      -1924.6891    
    493500   277.8495       451.73854     -2284.3622     -1926.2198    
    494000   288.00971     -47.416807     -2350.2578     -1978.2147    
    494500   286.49218      47.898388     -2327.9936     -1959.7552    
    495000   305.54301      397.26076     -2318.1624     -1923.0427    
    495500   290.69053      1210.2973     -2303.6427     -1929.1908    
    496000   285.84585      2116.3574     -2335.8214     -1966.544     
    496500   304.47678      1216.8168     -2338.2627     -1946.2652    
    497000   319.59992      1604.5482     -2328.7671     -1917.2096    
    497500   296.4239       1697.5469     -2341.0251     -1959.1195    
    498000   290.2605       706.03294     -2325.3379     -1952.1396    
    498500   286.961        2015.9574     -2282.0569     -1912.96      
    499000   292.38067      1495.9696     -2326.7657     -1950.0876    
    499500   307.06368      944.76803     -2334.2796     -1938.464     
    500000   309.55532      520.93748     -2307.7243     -1909.1765    
    500500   292.12461     -95.731034     -2314.3235     -1937.8467    
    501000   291.6852       1234.636      -2255.6289     -1880.0584    
    501500   308.51232     -153.40828     -2320.1717     -1921.1265    
    502000   291.17716      176.7774      -2315.1239     -1938.0658    
    502500   321.39513      858.37313     -2307.5901     -1892.9464    
    503000   297.09869      1410.2752     -2287.7856     -1904.6217    
    503500   288.3425       1351.4841     -2297.2062     -1925.7058    
    504000   308.24003      14.434829     -2333.3111     -1935.3991    
    504500   307.4503       1243.0675     -2301.0017     -1903.0435    
    505000   303.91284      3137.8235     -2282.0344     -1888.2191    
    505500   296.23777      1505.7722     -2332.401      -1948.4975    
    506000   306.12436      881.36598     -2306.9499     -1912.1003    
    506500   297.22737      1562.7703     -2284.7858     -1899.7899    
    507000   295.01803      349.51761     -2335.7512     -1955.0668    
    507500   290.53877      837.51848     -2314.5842     -1939.3586    
    508000   296.95716      362.68164     -2293.9706     -1910.3506    
    508500   298.97299      1229.247      -2315.7889     -1930.3741    
    509000   293.64991     -44.822193     -2304.6797     -1927.6889    
    509500   301.54333      576.16249     -2290.6315     -1902.9308    
    510000   314.78178      1647.3709     -2298.9164     -1892.8134    
    510500   297.88192      1812.8172     -2318.4124     -1933.9173    
    511000   312.06864      930.10083     -2310.195      -1907.6647    
    511500   314.49785      577.8034      -2283.2328     -1877.348     
    512000   298.09674      1332.7145     -2305.7389     -1919.5086    
    512500   283.33771      1802.2852     -2313.4302     -1947.4535    
    513000   288.85828      1833.9562     -2332.5185     -1959.3942    
    513500   305.75066      102.18096     -2291.4662     -1896.5006    
    514000   323.07718      472.15786     -2314.4388     -1897.6227    
    514500   304.6984       1050.8162     -2332.5788     -1938.4045    
    515000   321.79952      1520.5934     -2352.8937     -1936.917     
    515500   289.75069      163.8126      -2320.0156     -1944.7001    
    516000   301.53525      1781.6638     -2282.6912     -1893.974     
    516500   315.57192      161.59962     -2331.783      -1924.3831    
    517000   307.78626      855.76534     -2331.6179     -1933.5351    
    517500   293.34999      2730.953      -2331.0919     -1953.9154    
    518000   286.99748      654.43079     -2269.844      -1901.4535    
    518500   282.05217      3674.1249     -2289.7506     -1925.4264    
    519000   289.67439      279.03013     -2313.1699     -1939.1362    
    519500   304.48135     -816.23187     -2313.0256     -1921.665     
    520000   310.76588      2334.7384     -2295.4656     -1893.9346    
    520500   280.81251      1197.5876     -2278.0339     -1916.9226    
[...]
   2376000   298.71751      2144.5879     -2354.5887     -1967.799     
   2376500   312.89354      1100.7733     -2351.5655     -1947.9945    
   2377000   314.29727      1090.6361     -2322.5394     -1916.4752    
   2377500   311.79246      2221.6722     -2339.4933     -1937.3847    
   2378000   278.90032      1327.4279     -2292.8121     -1934.7518    
   2378500   308.71415      16.192862     -2319.4425     -1922.604     
   2379000   289.70088      1551.027      -2349.1256     -1975.3995    
   2379500   295.51164     -811.16971     -2311.4153     -1931.6769    
   2380000   308.32802      538.09293     -2336.2039     -1937.0934    
   2380500   289.80313      1200.1266     -2317.9496     -1942.811     
   2381000   315.70757      1389.3861     -2303.7807     -1896.3886    
   2381500   310.23675      420.18812     -2337.8749     -1937.4901    
   2382000   291.71966      1485.2565     -2312.7408     -1935.9224    
   2382500   294.48687      462.78062     -2310.7854     -1930.6956    
   2383000   304.43173      557.50019     -2299.5065     -1908.2377    
   2383500   302.61062      1957.0382     -2266.0029     -1875.4872    
   2384000   296.92166      160.78176     -2309.383      -1927.8938    
   2384500   298.43292      1360.2755     -2317.0842     -1932.0922    
   2385000   302.13904     -579.59467     -2334.0934     -1945.6017    
   2385500   294.43236      1152.9675     -2316.9819     -1937.0591    
   2386000   303.1719       665.89976     -2294.6257     -1904.6206    
   2386500   299.64507     -134.87849     -2350.4834     -1965.1623    
   2387000   300.12779      2236.3148     -2326.7309     -1942.1968    
   2387500   291.98974      2431.6199     -2292.7821     -1917.4744    
   2388000   297.00604      3265.7935     -2316.5755     -1934.6525    
   2388500   283.63173      754.49662     -2341.265      -1976.0245    
   2389000   295.89366     -129.17466     -2363.694      -1983.6645    
   2389500   304.01681      710.58969     -2324.2368     -1933.0053    
   2390000   300.84273      1034.853      -2298.4157     -1912.7306    
   2390500   312.10024      502.93339     -2293.3848     -1892.3515    
   2391000   291.51392     -311.4116      -2302.8463     -1927.6632    
   2391500   306.22497      732.83456     -2336.3092     -1943.3468    
   2392000   300.30577      1604.2081     -2313.2564     -1925.4466    
   2392500   308.4661       472.53625     -2288.9874     -1893.4463    
   2393000   281.74529      752.92253     -2310.4429     -1947.3178    
   2393500   291.45017      1124.3237     -2320.7621     -1943.3125    
   2394000   311.94367      1153.6328     -2317.9199     -1916.7089    
   2394500   325.07319      911.06812     -2290.0271     -1870.7938    
   2395000   300.37817      914.95064     -2312.3159     -1924.6602    
   2395500   308.50462      2061.2409     -2325.1583     -1926.1813    
   2396000   300.61788      946.2215      -2272.6986     -1884.1772    
   2396500   300.00068      678.30773     -2328.1674     -1941.6594    
   2397000   289.16595      698.00106     -2291.2999     -1918.3621    
   2397500   311.91543      2193.5777     -2283.3325     -1880.0927    
   2398000   319.4967      -65.370931     -2313.433      -1900.1386    
   2398500   290.11328      437.85833     -2318.9778     -1944.2748    
   2399000   291.6833       96.348171     -2314.7657     -1938.1149    
   2399500   301.22206      1042.9791     -2315.8722     -1927.7404    
   2400000   319.62249      2647.3302     -2316.7878     -1904.7496    
   2400500   307.32718      2561.5972     -2274.9739     -1877.5955    
   2401000   285.38195      1478.7511     -2301.6344     -1933.6295    
   2401500   291.31796     -36.456016     -2304.2388     -1929.5292    
   2402000   308.52555      1158.9898     -2282.0724     -1884.1303    
   2402500   315.83457      502.52564     -2330.3518     -1924.7249    
   2403000   296.90882      229.21723     -2336.8811     -1952.8967    
   2403500   285.13613      651.6662      -2267.3297     -1899.6524    
   2404000   314.85297      847.70318     -2313.3883     -1907.1619    
   2404500   282.63452     -64.578887     -2322.8114     -1958.6139    
   2405000   273.50108     -23.022386     -2357.623      -2004.4984    
   2405500   300.38593      1621.5213     -2338.4828     -1950.5931    
   2406000   308.48773      2995.9352     -2316.4654     -1918.3656    
   2406500   303.04218      1050.5129     -2298.6462     -1907.3979    
   2407000   308.57649      1628.354      -2320.0791     -1921.6516    
   2407500   301.65628      608.37018     -2322.8872     -1934.0652    
   2408000   317.26481      699.63084     -2287.3754     -1878.3357    
   2408500   292.41986     -749.13762     -2296.9184     -1921.1819    
   2409000   309.90858      1022.8793     -2334.8831     -1933.5826    
   2409500   294.28619     -15.645931     -2312.4187     -1932.9301    
   2410000   313.42148     -1006.3726     -2297.4127     -1891.6362    
   2410500   274.41939      413.39        -2292.1112     -1936.9261    
   2411000   302.97945      1943.3728     -2327.2594     -1934.9422    
   2411500   320.3374       1491.5739     -2303.4925     -1890.1408    
   2412000   317.23117      1195.6977     -2261.6245     -1851.3599    
   2412500   280.85433      66.965229     -2291.6203     -1929.2837    
   2413000   280.96667      419.114       -2310.3077     -1949.4103    
   2413500   296.10444      715.11625     -2282.8778     -1900.9423    
   2414000   313.764        1022.6841     -2309.3339     -1904.2221    
   2414500   298.13869      936.48263     -2337.8683     -1951.5957    
   2415000   301.62662      2224.123      -2311.2469     -1921.778     
   2415500   302.11387      1212.2162     -2296.342      -1904.9739    
   2416000   298.25643      1068.8734     -2346.4111     -1961.1347    
   2416500   295.78499      661.97134     -2347.8319     -1965.7019    
   2417000   287.74816      1359.0296     -2292.2197     -1920.722     
   2417500   306.28063      13.516506     -2304.9139     -1908.7484    
   2418000   283.59723      14.858849     -2326.4535     -1960.1941    
   2418500   307.72885     -34.151538     -2314.3401     -1915.8611    
   2419000   300.06792      2390.5338     -2306.4641     -1919.4945    
   2419500   287.39188      934.71626     -2317.2048     -1946.4506    
   2420000   281.55897      731.9376      -2341.4636     -1977.7975    
   2420500   299.81659      399.8759      -2309.9364     -1924.4084    
   2421000   302.47931      654.75838     -2298.2424     -1907.5638    
   2421500   306.16629      1741.0057     -2345.3137     -1950.3281    
   2422000   282.45042     -581.20429     -2315.4344     -1952.9677    
   2422500   301.98327      998.28375     -2298.5503     -1910.5       
   2423000   305.84884      293.93708     -2310.2871     -1916.1937    
   2423500   287.49419      511.6678      -2340.0287     -1967.9372    
   2424000   281.04198      479.45077     -2299.8299     -1936.9956    
   2424500   282.0169       718.50076     -2284.9553     -1923.0812    
   2425000   298.40708     -173.63317     -2340.0403     -1953.829     
   2425500   274.76079     -2220.1113     -2332.0448     -1977.7086    
   2426000   318.0421       462.45854     -2329.4343     -1919.1863    
   2426500   287.66847      371.22285     -2306.8584     -1935.5541    
   2427000   284.35471      1195.1991     -2329.535      -1963.4675    
   2427500   300.21766      1849.9527     -2303.6317     -1916.2055    
   2428000   296.92455      564.89188     -2301.6567     -1918.504     
   2428500   290.83488      1409.0536     -2347.9346     -1971.2564    
   2429000   303.62654      384.35171     -2336.3217     -1944.1933    
   2429500   312.3913       2242.5755     -2329.6155     -1925.1164    
   2430000   272.58737      324.85889     -2327.7638     -1977.3434    
   2430500   298.4185       1456.784      -2312.0819     -1929.5782    
   2431000   288.64026      803.17695     -2293.0999     -1923.065     
   2431500   292.65444      223.33982     -2336.0876     -1959.3658    
   2432000   308.50405      322.51957     -2340.723      -1944.0999    
   2432500   296.19045      2057.7798     -2284.2618     -1905.0012    
   2433000   293.74502      829.44873     -2318.9476     -1941.1716    
   2433500   298.07258      1813.2474     -2319.5873     -1937.7314    
   2434000   309.03205      1185.6415     -2308.4018     -1911.8976    
   2434500   306.91321      532.79475     -2299.7767     -1904.9377    
   2435000   306.19454      153.70145     -2333.5382     -1939.6692    
   2435500   292.32984      2134.548      -2291.4335     -1915.2722    
   2436000   314.58787      170.00255     -2295.2837     -1889.6156    
   2436500   304.22109      423.97377     -2329.7087     -1936.6259    
   2437000   303.35869     -90.100838     -2344.3619     -1955.1621    
   2437500   307.22047      801.24539     -2301.4718     -1906.8551    
   2438000   306.55396     -107.59634     -2297.1849     -1903.2442    
   2438500   303.48033      2482.2463     -2313.2636     -1924.7554    
   2439000   284.17229      1805.4103     -2346.9912     -1981.9842    
   2439500   286.63204      779.67875     -2330.7832     -1963.8777    
   2440000   290.15757      474.70861     -2299.2775     -1926.8053    
   2440500   324.86058      1072.7112     -2321.0315     -1902.3829    
   2441000   283.21099      947.74161     -2320.7497     -1956.6352    
   2441500   303.64659      670.06897     -2304.8177     -1912.9048    
   2442000   302.74117     -48.739592     -2298.0989     -1909.8493    
   2442500   305.38921      463.18957     -2338.3318     -1944.2787    
   2443000   286.89526     -353.25824     -2323.2756     -1953.7063    
   2443500   303.9251       44.532676     -2294.7128     -1903.4249    
   2444000   293.50014      204.53609     -2304.5848     -1926.1872    
   2444500   289.08114      2450.2945     -2336.7222     -1964.364     
   2445000   296.62224      1709.7514     -2326.9295     -1942.7893    
   2445500   308.78227      1312.2556     -2312.2201     -1913.8316    
   2446000   304.36373      119.31836     -2309.3197     -1916.7461    
   2446500   296.29292     -145.21096     -2347.198      -1963.4696    
   2447000   300.43141     -142.23861     -2341.6358     -1954.8297    
   2447500   304.91004      1205.3784     -2299.1228     -1904.2737    
   2448000   282.96628     -151.00986     -2296.9083     -1930.4121    
   2448500   293.85701      1213.9476     -2336.6876     -1957.4413    
   2449000   313.31399      448.99839     -2341.0936     -1936.7861    
   2449500   308.36175      954.92259     -2314.1963     -1917.0288    
   2450000   292.76974      200.5857      -2340.0402     -1962.2415    
   2450500   308.84128      1399.1646     -2333.3538     -1934.1429    
   2451000   322.62831      1199.0837     -2308.7624     -1892.6208    
   2451500   278.96428      1169.5982     -2293.2636     -1932.3184    
   2452000   298.23082     -95.72957      -2337.9787     -1951.9064    
   2452500   299.34025      1897.5814     -2284.1318     -1896.7559    
   2453000   285.17142      1790.3227     -2302.6754     -1936.556     
   2453500   286.85564     -584.04096     -2309.5481     -1940.7133    
   2454000   305.07163      1621.4009     -2320.9632     -1928.4973    
   2454500   275.68271     -157.74375     -2340.5902     -1984.5559    
   2455000   298.44931      644.02617     -2332.1406     -1946.7825    
   2455500   293.51578      577.58937     -2301.3109     -1923.0698    
   2456000   288.71285      1787.5037     -2318.8882     -1946.2589    
   2456500   293.4467       860.81948     -2348.6607     -1970.7144    
   2457000   301.11774      228.18649     -2319.4564     -1932.7131    
   2457500   294.07738      2028.623      -2296.066      -1916.9616    
   2458000   288.77529      1075.8656     -2336.4844     -1963.6418    
   2458500   285.83477      1242.3505     -2311.7467     -1942.1931    
   2459000   290.40833      1782.9901     -2292.7414     -1919.3488    
   2459500   290.54846      469.39163     -2298.9083     -1924.0396    
   2460000   316.42375     -653.19206     -2304.526      -1897.7124    
   2460500   307.81874      872.30494     -2331.9046     -1936.6444    
   2461000   304.3156       1934.803      -2337.3353     -1946.3981    
   2461500   304.41409      653.78253     -2276.9227     -1884.6338    
   2462000   302.88622      2058.7339     -2286.5277     -1897.7117    
   2462500   283.34844      438.41096     -2306.0754     -1939.4742    
   2463000   308.41819      13.086008     -2309.9775     -1913.6619    
   2463500   324.31726      2418.5598     -2280.5891     -1863.298     
   2464000   296.54362      1715.1917     -2307.1748     -1925.9684    
   2464500   295.9736      -461.46323     -2324.3099     -1944.5351    
   2465000   310.22681      1203.9093     -2322.8264     -1923.9315    
   2465500   297.87822      961.24705     -2277.9937     -1894.9314    
   2466000   309.54512      863.62284     -2278.5071     -1881.964     
   2466500   314.11105      1419.4299     -2337.2038     -1933.1113    
   2467000   303.31984      817.08521     -2343.43       -1953.1385    
   2467500   301.12302      1675.0576     -2277.2661     -1889.7735    
   2468000   313.53681      644.52383     -2328.7884     -1926.2571    
   2468500   307.7545       2263.5652     -2341.5419     -1945.2987    
   2469000   304.56889      2102.1717     -2305.1378     -1913.2834    
   2469500   328.98691      1815.3218     -2287.8907     -1865.2226    
   2470000   314.15977     -380.27        -2316.3358     -1911.1584    
   2470500   302.07034      2807.0399     -2335.5052     -1945.4142    
   2471000   294.33284      977.00103     -2338.9894     -1960.2469    
   2471500   306.69681      1961.3192     -2305.2875     -1909.3079    
   2472000   306.85313      2201.7075     -2277.5871     -1880.7572    
   2472500   305.97615      1342.8295     -2318.375      -1923.6461    
   2473000   294.38586      516.26873     -2315.1223     -1934.851     
   2473500   295.37222     -1118.0549     -2354.7097     -1974.5531    
   2474000   300.78399      1063.2401     -2306.2531     -1921.1036    
   2474500   318.57783      931.79316     -2307.8352     -1898.4972    
   2475000   299.17533      209.6827      -2333.7479     -1948.4081    
   2475500   292.29854      554.47285     -2320.106      -1942.1441    
   2476000   315.4829       1770.3949     -2309.769      -1904.6444    
   2476500   321.47571      412.99187     -2302.7903     -1887.7042    
   2477000   283.14882     -1906.9291     -2292.0067     -1927.1898    
   2477500   319.21205     -425.25862     -2328.6432     -1916.9376    
   2478000   307.40297      1527.6801     -2284.1685     -1887.4746    
   2478500   300.04629      1703.8063     -2316.1318     -1928.6315    
   2479000   303.81868      1333.5323     -2335.7098     -1943.7265    
   2479500   323.6591       587.4439      -2296.3865     -1878.949     
   2480000   284.09878      618.41518     -2292.1535     -1927.3839    
   2480500   291.24187      1151.6516     -2304.0151     -1927.9831    
   2481000   303.06245      1870.4969     -2306.5256     -1915.5721    
   2481500   278.98673      304.73208     -2302.1324     -1942.501     
   2482000   294.31338      1367.4402     -2277.8418     -1898.1986    
   2482500   298.39685      1391.7932     -2312.2498     -1927.0886    
   2483000   302.80189      95.72944      -2334.0717     -1943.1206    
   2483500   307.88373      505.26673     -2296.6477     -1897.8249    
   2484000   290.51853      131.05943     -2308.9847     -1933.5806    
   2484500   285.84316      941.50127     -2320.143      -1951.5096    
   2485000   299.2994       1272.056      -2290.5848     -1902.9796    
   2485500   305.84149      871.61456     -2303.1924     -1908.726     
   2486000   310.8682       2081.912      -2329.8548     -1928.8783    
   2486500   284.02666      2543.9783     -2286.9317     -1922.0172    
   2487000   304.89402      903.13038     -2270.266      -1878.1227    
   2487500   296.6829       1294.9916     -2307.0451     -1924.8113    
   2488000   300.43477      1646.5014     -2335.9257     -1946.8882    
   2488500   311.32752     -451.26771     -2309.08       -1907.5888    
   2489000   309.66881      1272.5121     -2308.108      -1909.5497    
   2489500   308.05158      1470.4591     -2329.1433     -1933.0469    
   2490000   296.54675      1798.5928     -2315.245      -1931.1141    
   2490500   310.07346      675.8463      -2288.8716     -1888.7657    
   2491000   326.18157      458.55673     -2254.1521     -1833.3689    
   2491500   313.70776      497.82508     -2310.7072     -1905.9726    
   2492000   290.69952      1675.5856     -2329.6297     -1954.1202    
   2492500   297.50596     -498.24491     -2310.8409     -1926.7323    
   2493000   308.75495      170.47414     -2295.4684     -1896.7135    
   2493500   301.10002     -77.213847     -2316.9587     -1928.5058    
   2494000   296.22341      881.22787     -2348.5405     -1965.5062    
   2494500   301.75044      1454.9317     -2310.9446     -1921.1641    
   2495000   308.00005      299.23224     -2323.791      -1926.1834    
   2495500   291.07129     -336.58749     -2336.9192     -1961.9196    
   2496000   281.82812      894.99659     -2352.4577     -1988.5775    
   2496500   287.40981      2507.0122     -2304.0502     -1933.4538    
   2497000   282.95563      1717.6572     -2284.2098     -1919.3306    
   2497500   280.49598      2839.6919     -2325.3486     -1963.5868    
   2498000   291.60902     -270.41159     -2302.5012     -1924.9857    
   2498500   321.53109     -703.57544     -2343.2997     -1927.2399    
   2499000   297.06288      2504.9695     -2341.5605     -1957.7952    
   2499500   291.48573      1052.9143     -2382.2291     -2004.8446    
   2500000   297.0515       343.16118     -2334.1961     -1950.5938    
Loop time of 4325.6 on 16 procs for 2500000 steps with 650 atoms

Performance: 99.870 ns/day, 0.240 hours/ns, 577.954 timesteps/s
88.7% CPU use with 16 MPI tasks x no OpenMP threads

MPI task timing breakdown:
Section |  min time  |  avg time  |  max time  |%varavg| %total
---------------------------------------------------------------
Pair    | 1039.9     | 1178.6     | 1325.3     | 238.9 | 27.25
Bond    | 1.3078     | 1.4785     | 1.9731     |  12.3 |  0.03
Kspace  | 1090       | 1233.4     | 1373.2     | 232.0 | 28.51
Neigh   | 118.83     | 119.34     | 119.75     |   2.7 |  2.76
Comm    | 636.06     | 638.84     | 641.72     |   6.2 | 14.77
Output  | 3.1514     | 3.1631     | 3.216      |   0.8 |  0.07
Modify  | 1100.5     | 1104.8     | 1107.4     |   6.0 | 25.54
Other   |            | 46.03      |            |       |  1.06

Nlocal:         40.625 ave          48 max          34 min
Histogram: 2 1 3 0 2 3 0 3 0 2
Nghost:        3271.75 ave        3319 max        3231 min
Histogram: 1 2 2 3 2 0 3 1 0 2
Neighs:        15458.8 ave       17317 max       12542 min
Histogram: 1 0 2 2 0 2 1 3 3 2

Total # of neighbors = 247340
Ave neighs/atom = 380.52308
Ave special neighs/atom = 1.9938462
Neighbor list builds = 198717
Dangerous builds = 22397

write_data  end.data                                   # write a lammps.data file with the final configuration, can be used to start new simulations
System init for write_data ...
PPPM initialization ...
  using 12-bit tables for long-range coulomb (../kspace.cpp:342)
  G vector (1/distance) = 0.30520329
  grid = 16 16 16
  stencil order = 5
  estimated absolute RMS force accuracy = 0.0030333252
  estimated relative force accuracy = 9.1347686e-06
  using double precision KISS FFT
  3d grid and FFT values/proc = 2475 256
Generated 5 of 6 mixed pair_coeff terms from arithmetic mixing rule
WARNING: Not all mixed pair coeffs generated from mixing. Use write_data with 'pair ij' option to store all pair coeffs. (../write_data.cpp:309)
Total wall time: 1:12:05
