LAMMPS data file via write_data, version 23 Jun 2022, timestep = 2500000

650 atoms
4 atom types
432 bonds
1 bond types
216 angles
1 angle types

0.12622048752526993 18.473779512474515 xlo xhi
0.12622048752526993 18.473779512474515 ylo yhi
0.12622048752526993 18.473779512474515 zlo zhi

Masses

1 15.9994
2 1.008
3 22.9898
4 35.453

Pair Coeffs # lj/charmm/coul/long

1 0.1521 3.1507 0.1521 3.1507
2 0.046 0.4 0.046 0.4
3 0.352642 2.15954 0.352642 2.15954
4 0.012785 4.83045 0.012785 4.83045

Bond Coeffs # harmonic

1 450 0.9572

Angle Coeffs # harmonic

1 55 104.52

Atoms # full

489 163 2 0.417 6.1716168381601175 7.881590257762148 0.23595824682096983 -6 -6 7
221 74 2 0.417 4.311764885671209 1.9596782368300825 0.5502316041229285 0 1 2
327 109 2 0.417 6.252293658194817 2.15306888954708 3.3352237213629454 -6 -8 1
624 208 2 0.417 2.3893419724335656 8.43562405443329 3.416363646392263 2 3 -2
622 208 1 -0.834 2.717319975286442 7.923738884684133 2.677015303584626 2 3 -2
559 187 1 -0.834 7.7385880895831685 2.835542551633224 0.40822109623335995 -2 3 3
48 16 2 0.417 8.202219972286189 0.4866224770293923 3.842662631571759 1 3 -2
441 147 2 0.417 0.7501983992361718 0.4652844991790353 1.8823811793322431 0 0 3
339 113 2 0.417 6.903981196838442 0.38218496778590244 1.9419623864764883 4 0 0
326 109 2 0.417 5.797743351209221 3.238466130072061 2.382757418714658 -6 -8 1
106 36 1 -0.834 2.4338056784374804 5.2119031046886395 1.2933483845922047 3 2 1
415 139 1 -0.834 5.741168543287985 7.812628976954421 3.2560037703640172 3 0 -4
416 139 2 0.417 6.297248334283553 7.062984254827526 3.4682303100840293 3 0 -4
417 139 2 0.417 4.872950189565616 7.565057659397153 3.574024560327491 3 0 -4
325 109 1 -0.834 6.152221471011723 3.102156085474487 3.2613911103145035 -6 -8 1
119 40 2 0.417 4.815856520873607 4.701353165913177 4.193864224321404 -6 4 4
220 74 1 -0.834 4.587889186458352 2.6802220824102125 1.116627056759811 0 1 2
561 187 2 0.417 7.548595230709522 1.9091163716479314 0.2603386141785889 -2 3 3
560 187 2 0.417 6.911422432285683 3.2820039049039385 0.22738603806414093 -2 3 3
549 183 2 0.417 0.3822823416288466 2.68636919951686 2.7806057483896396 2 1 -3
548 183 2 0.417 1.420124032695375 3.1531147854149353 3.779068760240297 2 1 -3
222 74 2 0.417 3.9605993494320804 3.3805742945195263 0.9370550213345019 0 1 2
107 36 2 0.417 2.6386714425645077 6.134274582069939 1.4466221805385278 3 2 1
208 70 1 -0.834 7.4108823416086524 5.6877156448026795 3.966961976183257 4 7 -3
626 209 2 0.417 9.253999925332312 3.584992290366745 3.2429649559585125 1 1 0
488 163 2 0.417 5.449212285680969 7.623941037907144 1.5411953035694452 -6 -6 7
210 70 2 0.417 7.0788151169789035 4.805850374430668 3.798804424223055 4 7 -3
337 113 1 -0.834 6.491630056514243 0.29920612013008124 2.8017955177419402 4 0 0
627 209 2 0.417 9.052363783899509 3.3959056587022287 1.7545146389355715 1 1 0
623 208 2 0.417 3.0729597483859923 8.575464732713563 2.072858325254539 2 3 -2
108 36 2 0.417 2.158747351012155 4.8818110766221245 2.148692862043672 3 2 1
547 183 1 -0.834 0.9569306772119399 3.4237251604649566 2.986317863943479 2 1 -3
439 147 1 -0.834 1.5296610342173036 0.16463093952926805 1.4151795342878641 0 0 3
487 163 1 -0.834 5.36292544597449 7.515528214607573 0.594076791980165 -6 -6 7
46 16 1 -0.834 8.631310088775606 0.39598574016396076 4.693485490420165 1 3 -2
429 143 2 0.417 2.2662400050734157 5.71546444808579 4.508096557251673 -3 -7 0
271 91 1 -0.834 6.154610725972802 0.1916967192277937 0.1300113778892431 -2 0 1
356 119 2 0.417 7.640607249100054 2.401626237826569 8.129637674155337 -3 -2 -2
263 88 2 0.417 4.552204583003262 0.41642465716039706 6.333593119184268 1 6 -2
617 206 2 0.417 7.662642390213829 4.740138795485774 8.385338168126944 2 -2 1
378 126 2 0.417 2.636746507382581 8.231286428144571 7.444456696758554 1 -1 -7
376 126 1 -0.834 3.2191128633271378 7.616945649910235 7.891297527583007 1 -1 -7
47 16 2 0.417 8.929979825757037 1.279971738673492 4.907020675151541 1 3 -2
323 108 2 0.417 1.1528522885911918 5.078286558449996 8.172972675435549 -6 2 -2
357 119 2 0.417 6.7702785798799106 1.1631064109066054 8.10745858454372 -3 -2 -2
642 214 2 0.417 6.011180015889186 5.826006469090165 8.287542905930536 -2 -1 0
641 214 2 0.417 6.466155256423114 7.25982982112449 8.117121601886012 -2 -1 0
143 48 2 0.417 3.301110197270267 3.342912305761231 5.140938094245091 5 -2 -2
609 203 2 0.417 8.742805944393664 6.823168320224665 8.516916462021216 -3 5 9
341 114 2 0.417 4.186718731781068 4.154283223145307 8.236724179566965 7 -9 -6
324 108 2 0.417 1.8685686219791486 6.216534020400691 7.477244219441438 -6 2 -2
377 126 2 0.417 4.079740948741418 8.034604952069891 7.857952333734402 1 -1 -7
209 70 2 0.417 7.969042608482369 5.590902738869331 4.738529399655093 4 7 -3
234 78 2 0.417 1.0816974062854288 1.8759737553144449 5.729344207815036 4 3 -5
322 108 1 -0.834 1.5197245807270554 5.337779698403052 7.3278100253795495 -6 2 -2
342 114 2 0.417 3.9202080160002284 5.4646360067374316 7.526905274933233 7 -9 -6
646 216 1 -0.834 3.6789958204756084 0.6972885959979904 8.163696280707706 2 4 2
340 114 1 -0.834 4.628594192427257 4.87911372523616 7.79445842020835 7 -9 -6
616 206 1 -0.834 7.8388576878220775 3.9610102252083603 8.912726852161265 2 -2 1
358 120 1 -0.834 5.873478581373654 8.919940852509908 8.45578388738894 5 5 2
428 143 2 0.417 1.3921700932679066 5.663966969862369 5.743104661381811 -3 -7 0
640 214 1 -0.834 6.773655672783186 6.395492998988187 8.390246948447952 -2 -1 0
355 119 1 -0.834 7.50238484573003 1.5820024316396226 7.654934037396108 -3 -2 -2
120 40 2 0.417 4.570046743574326 5.25326461138374 5.581980408680911 -6 4 4
262 88 1 -0.834 4.189210374026953 0.5977392566398699 5.466649006564161 1 6 -2
449 150 2 0.417 9.134339615340021 1.6831359872373746 7.16297638954811 1 5 1
427 143 1 -0.834 1.5037866481615336 6.128358554495887 4.913578123697475 -3 -7 0
142 48 1 -0.834 2.6116286017820762 2.680361080014108 5.097659726488343 5 -2 -2
328 110 1 -0.834 8.726300250077301 9.144781040820055 6.224382073090803 -3 1 2
144 48 2 0.417 3.078468523636531 1.8454909757253912 5.133501536885484 5 -2 -2
232 78 1 -0.834 0.19186115657466354 1.5994871548732241 5.948384469037905 4 3 -5
574 192 1 -0.834 1.698217211037735 8.964824240825775 5.017059569471841 4 -2 -5
648 216 2 0.417 3.4845132098807703 1.4283775854847809 7.577251643386081 2 4 2
647 216 2 0.417 2.826665920764369 0.4358534933569353 8.512146350492516 2 4 2
247 83 1 -0.834 0.6452647025751327 8.175076302894928 9.014492028197159 4 -2 1
330 110 2 0.417 9.061589417106223 8.430396237512966 5.682655769980338 -3 1 2
233 78 2 0.417 0.25928202258811867 0.6533270955712023 6.076710477008943 4 3 -5
535 179 1 -0.834 2.5567488239145146 3.3456848503833205 9.008543103552068 2 0 2
118 40 1 -0.834 4.154082503986066 5.14170393482931 4.727135492457895 -6 4 4
575 192 2 0.417 1.1362002178961057 8.220913947510585 4.800342297544051 4 -2 -5
88 30 1 -0.834 5.736238400134754 0.45147940919286045 10.22205541549394 2 -4 2
484 162 1 -0.834 6.621913024917672 3.825292857284038 11.257303724953962 3 -2 -3
587 196 2 0.417 2.8282210518250137 6.7270571643295645 9.420952294200768 1 -3 -5
606 202 2 0.417 6.031701753692437 7.723978503035386 12.976250030710462 -5 8 5
563 188 2 0.417 6.7252170896308945 1.0250809457828236 11.671984890238308 4 -1 -1
635 212 2 0.417 8.599084544784416 6.946635534188892 12.56208327994034 0 5 -6
249 83 2 0.417 0.9165732698425714 7.523797241128952 9.661376209368948 4 -2 1
77 26 2 0.417 6.364900578382908 1.66795278493807 13.85311812944999 -2 -2 -1
419 140 2 0.417 1.6875902402409348 0.1357172838643365 10.436038884733378 6 7 -4
588 196 2 0.417 3.025419887217928 5.331777127450567 9.974307054483793 1 -3 -5
113 38 2 0.417 1.3989021664036232 6.524472772226211 11.4196015959721 -2 0 2
562 188 1 -0.834 7.38540722138774 1.3578509787745296 12.27996958934441 4 -1 -1
418 140 1 -0.834 1.2884856310088686 0.21741951708998908 9.569855946677702 6 7 -4
486 162 2 0.417 5.87147428905419 4.282923871379446 11.636312371664703 3 -2 -3
618 206 2 0.417 7.240008290353758 4.033786709399807 9.655905935501808 2 -2 1
251 84 2 0.417 0.9714171251482637 4.421279442715216 12.729944966185395 2 3 -7
604 202 1 -0.834 5.864501198096969 8.159303040610748 13.812173721606333 -5 8 5
345 115 2 0.417 0.9823228902643778 1.88381436830707 13.170337357359116 1 -5 -5
160 54 1 -0.834 8.681482234857041 4.974671149180041 12.763147000233927 -3 0 -2
236 79 2 0.417 6.415826904390873 7.074912436753948 10.356537422465147 -1 -2 -6
250 84 1 -0.834 1.4156778882500545 4.003586100150603 11.992112519339187 2 3 -7
235 79 1 -0.834 5.927436275855742 7.466012331143856 11.080931878379191 -1 -2 -6
162 54 2 0.417 8.498273478604572 4.137390169091555 12.336969765406552 -3 0 -2
89 30 2 0.417 4.854119743974797 0.4534520434340772 9.850444488565914 2 -4 2
586 196 1 -0.834 2.4693663365489362 6.106666934128537 10.055437354291387 1 -3 -5
237 79 2 0.417 5.270571703178596 6.808572933254811 11.310135342577952 -1 -2 -6
565 189 1 -0.834 4.299733423198903 5.046540224750835 12.48265675080955 3 6 -1
566 189 2 0.417 4.222726568344353 5.4104663034991995 13.364620327308876 3 6 -1
537 179 2 0.417 2.586118886034926 2.5462616916877256 9.534177861962597 2 0 2
114 38 2 0.417 1.6467474006362912 7.516643186110785 12.535874796367523 -2 0 2
112 38 1 -0.834 0.94495401759514 7.075846115846418 12.056900954370473 -2 0 2
564 188 2 0.417 8.161321655240434 1.4996172134071233 11.737667661461735 4 -1 -1
485 162 2 0.417 6.530182581322113 2.92196057217093 11.56030240464608 3 -2 -3
252 84 2 0.417 0.865932944918903 4.206069310206012 11.23513629277434 2 3 -7
567 189 2 0.417 3.4055237442931223 4.800801186921872 12.245521043439508 3 6 -1
248 83 2 0.417 0.8753269030337679 9.016039269320554 9.409567433436573 4 -2 1
634 212 1 -0.834 9.155517847689591 7.710238293765025 12.71546110816837 0 5 -6
536 179 2 0.417 1.7721123314260063 3.803018691354948 9.310905883047877 2 0 2
554 185 2 0.417 8.378506695800784 4.061985148442574 17.352733735910224 -4 -1 6
555 185 2 0.417 7.992741623001833 5.1134383290247305 16.334143181805523 -4 -1 6
175 59 1 -0.834 1.7889098406656279 8.766001472000328 14.212639738922025 3 -1 -3
172 58 1 -0.834 2.9682134529059887 8.82414747729278 18.224215661057503 -2 7 -3
7 3 1 -0.834 3.689898800057537 0.2673368882419422 14.281786216472543 -7 4 -3
479 160 2 0.417 2.8904676732299377 7.4793311955754715 14.596705229689803 -2 8 3
478 160 1 -0.834 3.638959924462939 6.884094663882489 14.637755402693776 -2 8 3
96 32 2 0.417 3.18498350683947 2.752328632490078 15.978149352860719 -2 -4 -1
176 59 2 0.417 0.9532964073825555 8.558985855078468 14.631121390378826 3 -1 -3
91 31 1 -0.834 3.1586276037959857 1.3567444717947792 17.263043766600727 3 -4 -5
94 32 1 -0.834 3.4135041326876525 3.141465252363556 15.134003077917814 -2 -4 -1
95 32 2 0.417 4.252717136373921 2.74209980990363 14.904959931889284 -2 -4 -1
76 26 1 -0.834 5.941809626142397 2.04099222011876 14.62646675867173 -2 -2 -1
639 213 2 0.417 5.806206665535655 5.18291116769626 16.81079510422682 1 -2 -2
134 45 2 0.417 2.0924393358957203 4.366876060639043 14.6610533171487 -2 -3 -5
133 45 1 -0.834 1.2036744264350763 4.720516966164282 14.625457903120402 -2 -3 -5
553 185 1 -0.834 8.75214946576291 4.691780797019059 16.73630811304706 -4 -1 6
147 49 2 0.417 6.4067267759202 4.057695672348306 14.80738706233247 -2 4 -13
9 3 2 0.417 3.11319977691426 0.6253336777197379 14.95668508633215 -7 4 -3
273 91 2 0.417 5.510277071297378 0.424764198647631 17.809180079442086 -2 0 0
480 160 2 0.417 3.6357780129931054 6.556188851559354 15.537032812996314 -2 8 3
637 213 1 -0.834 5.868179170485084 4.919922281010655 17.729069652303423 1 -2 -2
364 122 1 -0.834 7.771098588509166 8.78857149778378 17.87458154351419 -1 -2 -6
78 26 2 0.417 6.590361789869479 1.946189976348217 15.324052034246929 -2 -2 -1
135 45 2 0.417 1.2702387832101436 5.579383039374222 15.042770892488747 -2 -3 -5
146 49 2 0.417 7.077019372940101 5.240283260667079 14.140986544506008 -2 4 -13
139 47 1 -0.834 2.6121621530640957 6.347817172755664 17.150321133757174 -4 -3 -1
140 47 2 0.417 2.6472743918879913 7.180696421446818 17.62075856252492 -4 -3 -1
93 31 2 0.417 2.376661867467976 1.8647159355192608 17.479206982180614 3 -4 -5
145 49 1 -0.834 6.54700257771621 4.999927460771668 14.90094919182221 -2 4 -13
92 31 2 0.417 2.9431966430244247 0.4615531606930343 17.524680872776734 3 -4 -5
141 47 2 0.417 3.1102374720117663 5.741416552905453 17.69843714420841 -4 -3 -1
191 64 2 0.417 8.988410626048802 1.617630440080221 16.647236478434667 2 1 6
8 3 2 0.417 4.422911805703552 0.8816133813574185 14.24193315187631 -7 4 -3
192 64 2 0.417 8.556165994454584 0.773278941192433 15.467350722319825 2 1 6
224 75 2 0.417 0.5215836041429124 6.318711624382461 17.634916590779937 0 -1 -5
605 202 2 0.417 5.145991497786047 7.661635362760086 14.202433504355712 -5 8 5
190 64 1 -0.834 8.217023589335522 1.3624991351657876 16.141171282068584 2 1 6
16 6 1 -0.834 1.3678522000785487 3.353707883366264 17.83934653708031 1 0 -3
365 122 2 0.417 7.560344434059251 8.68609267198071 16.94651223089875 -1 -2 -6
366 122 2 0.417 8.71376829795509 8.630415116996094 17.92549568080136 -1 -2 -6
638 213 2 0.417 5.660043538102647 5.714350537170977 18.220796439106305 1 -2 -2
173 58 2 0.417 3.904099000666106 8.673338709488645 18.35690640763875 -2 7 -3
18 6 2 0.417 0.7385241828670197 2.7581639830539784 18.24617036114833 1 0 -3
343 115 1 -0.834 0.4068316920022265 1.928880491991267 13.933888970184128 1 -5 -5
344 115 2 0.417 0.7560230798690841 2.651697547467638 14.45526500058434 1 -5 -5
26 9 2 0.417 8.96687787222157 6.710899053485262 15.5063869972349 1 3 1
17 6 2 0.417 1.46239026474656 4.069120972520593 18.468217475347956 1 0 -3
592 198 1 -0.834 6.75564239392749 10.466908265754542 3.6257549698426446 0 -1 -4
520 174 1 -0.834 4.001710075432355 17.420752160924756 2.537369825178912 4 3 9
521 174 2 0.417 3.2143697707709165 17.956243904177335 2.439513312769359 4 3 9
401 134 2 0.417 0.3895003895540333 15.395516037174001 0.8385489991676056 -7 3 0
516 172 2 0.417 9.265860077452391 9.580931253010835 3.1901567459043765 -1 -1 -1
421 141 1 -0.834 8.79410945861146 16.057277634802777 3.0833556339369887 1 3 -3
198 66 2 0.417 6.859493835275919 15.712647268471308 0.7518060791521913 5 2 -1
501 167 2 0.417 9.231034379886937 13.822934243816507 2.763280085665921 -1 -2 0
541 181 1 -0.834 4.380796896254898 13.898606005050578 1.39683543241003 0 5 -6
338 113 2 0.417 5.806049917450249 17.990564049814576 2.676846869880727 4 -1 0
422 141 2 0.417 8.840922734004554 16.555322741757475 3.899438674611661 1 3 -3
206 69 2 0.417 8.089525872701635 18.02009164599756 0.5778396317332649 7 4 -2
493 165 1 -0.834 1.26354692674286 12.137489305463756 4.295126377824251 -3 -3 4
543 181 2 0.417 5.2470049532691085 14.304051177735678 1.4359484127609785 0 5 -6
522 174 2 0.417 4.012456763515154 16.865148860268043 1.7579973729301352 4 3 9
205 69 1 -0.834 9.032628712621257 17.994920000465658 0.7395659586789548 7 4 -2
321 107 2 0.417 6.428713607902509 17.16376660431566 4.43438710889907 -4 -7 6
440 147 2 0.417 1.265830894037954 17.682592336243335 1.0171929843833238 0 -1 3
500 167 2 0.417 8.810379652705011 12.478030437306511 2.2099460348029942 -1 -2 0
197 66 2 0.417 7.298391116202117 15.652423056551052 2.1994377680921056 5 2 -1
591 197 2 0.417 3.319192397341463 11.55971396821498 3.4362390906837206 0 -2 -1
196 66 1 -0.834 6.519646542964335 15.717199686309371 1.6466330370634432 5 2 -1
542 181 2 0.417 3.7707786209150838 14.620818972473764 1.5468954417570302 0 5 -6
320 107 2 0.417 6.02317991049202 15.74344356370146 4.10254359457653 -4 -7 6
593 198 2 0.417 5.965640627751107 10.770613395732548 3.1786617095383805 0 -1 -4
83 28 2 0.417 0.4010424620068803 10.017294262831749 1.7972203951454937 -3 1 0
494 165 2 0.417 1.242493262102245 11.666115390252164 3.4623024436766827 -3 -3 4
84 28 2 0.417 1.3815661762560423 10.986388204043298 1.1716603046346854 -3 1 0
458 153 2 0.417 3.260862567209962 16.406230192517803 4.175553033617823 -3 -2 -2
594 198 2 0.417 6.883930798063125 9.573794674619238 3.3061893859091214 0 -1 -4
400 134 1 -0.834 1.2915380599501234 15.432873810369092 0.5204850864623357 -7 3 0
589 197 1 -0.834 4.144821313424809 11.597048810266395 2.95335723351794 0 -2 -1
590 197 2 0.417 4.0963583488658015 12.4146657086192 2.457992778323116 0 -2 -1
82 28 1 -0.834 1.038267564859589 10.696910351178001 2.016988969461096 -3 1 0
402 134 2 0.417 1.5111560734824085 14.52429171994176 0.3143811644272988 -7 3 0
20 7 2 0.417 5.438861276265544 12.967365920488398 3.462415491420058 0 -5 7
19 7 1 -0.834 6.273739985298061 13.413954432864541 3.6030145834680853 0 -5 7
423 141 2 0.417 9.212020659751367 16.622020297078226 2.433241897840224 1 3 -3
304 102 1 -0.834 0.4065840190185235 12.994134296638695 0.48148862271994786 6 -1 3
21 7 2 0.417 6.927655082270678 12.7156232485224 3.5720231199298706 0 -5 7
216 72 2 0.417 7.6158461309983005 10.490292053496145 0.4157384961525387 -3 6 6
214 72 1 -0.834 7.722406167112841 11.441399236598143 0.3992431517000149 -3 6 6
272 91 2 0.417 5.879006200504166 17.676011857159622 0.43836842241147084 -2 -1 1
544 182 1 -0.834 1.1472609777092437 17.320616691895257 6.550462536094492 -8 0 3
195 65 2 0.417 4.768760996163218 15.97741642224632 8.713952006292487 3 -2 -1
457 153 1 -0.834 3.031703298279445 15.956204949203476 4.988692143602164 -3 -2 -2
101 34 2 0.417 1.3123450233002594 12.904973629937531 7.865220183017258 0 -3 -6
359 120 2 0.417 5.70763664308051 9.318204049063956 7.601316110808309 5 5 2
264 88 2 0.417 4.584848705048753 18.284832279547434 4.897889970219038 1 5 -2
318 106 2 0.417 8.714478616849421 9.860729184795554 7.929483857183955 5 4 0
397 133 1 -0.834 5.372231229129638 10.18339453006141 6.0857035625315135 8 -5 -1
157 53 1 -0.834 5.9116134632267165 15.757578541942538 7.310912699471887 1 -11 0
11 4 2 0.417 9.22457598578395 13.80567662370806 6.223591214153665 5 -4 1
100 34 1 -0.834 1.0090007110043053 13.52467806302128 8.528681233045305 0 -3 -6
159 53 2 0.417 5.918579986022044 16.04073712538279 6.3965794952018635 1 -11 0
545 182 2 0.417 2.0042368578615952 17.155432915410593 6.157348505009539 -8 0 3
571 191 1 -0.834 3.7622565050436845 13.908059483322354 7.5044246188711154 6 4 -2
471 157 2 0.417 3.032203407850572 12.464214199708675 8.071145098420773 -3 3 -2
329 110 2 0.417 8.979528152741592 9.940285596463061 5.756108585809431 -3 1 2
316 106 1 -0.834 8.581032875694662 10.323643039510706 8.75660859638573 5 4 0
572 191 2 0.417 4.661450901137294 14.235334301918636 7.5283531713514025 6 4 -2
12 4 2 0.417 8.854399670040465 15.245305910075803 6.510527331958485 5 -4 1
398 133 2 0.417 6.144393602112125 10.498741685439867 5.616072438517347 8 -5 -1
504 168 2 0.417 8.219773324339673 17.75116105304266 6.911983666637517 2 0 0
469 157 1 -0.834 2.8998245491807517 11.532601819286477 8.246662352776736 -3 3 -2
573 191 2 0.417 3.2598924777732963 14.549695304705438 8.006585698003995 6 4 -2
360 120 2 0.417 6.654333448413465 9.367486391319545 8.781668450522137 5 5 2
298 100 1 -0.834 7.5483257609993375 12.924796305253897 8.436953515697398 1 2 2
124 42 1 -0.834 1.7700633740748275 16.039842180639262 8.852558626998073 1 -2 4
126 42 2 0.417 2.6208243992631415 15.951982931203721 9.282347497405311 1 -2 4
576 192 2 0.417 1.1326742811024497 9.556191227225682 5.513726740368651 4 -2 -5
299 100 2 0.417 7.567904362618253 13.138700875948523 7.504165517197921 1 2 2
300 100 2 0.417 8.1343903411238 12.17290606150885 8.52310089620952 1 2 2
546 182 2 0.417 1.2401286134944827 17.03221354001772 7.458444504029423 -8 0 3
502 168 1 -0.834 8.663301884117722 17.000665355714613 7.307294293294341 2 0 0
158 53 2 0.417 6.83646293746843 15.681171065213405 7.545534845445838 1 -11 0
470 157 2 0.417 3.458169239567156 11.086690788700786 7.609758503371629 -3 3 -2
399 133 2 0.417 4.642532171953774 10.355373637760872 5.490561239502112 8 -5 -1
459 153 2 0.417 3.8627131025588115 15.609671856845384 5.313606615257021 -3 -2 -2
495 165 2 0.417 0.773150800636798 11.579764815275247 4.899019698610406 -3 -3 4
288 96 2 0.417 1.6012908304237323 15.011683557483838 5.33209567014385 0 0 -1
286 96 1 -0.834 0.8074646701205456 14.494196509595158 5.4672972118890355 0 0 -1
125 42 2 0.417 1.4876043143802518 15.139274704413454 8.6930996737377 1 -2 4
10 4 1 -0.834 8.48500713984303 14.413287018487074 6.21468000574918 5 -4 1
287 96 2 0.417 0.9748100970786148 13.67283558767297 5.005134984042143 0 0 -1
319 107 1 -0.834 5.941993890351021 16.415281220241802 4.7795036913367595 -4 -7 6
595 199 1 -0.834 3.5351457933609587 13.464714567372903 11.570230716537584 -2 -1 -2
239 80 2 0.417 6.222752064903162 12.56108677466171 9.338554696081214 0 -4 4
332 111 2 0.417 7.469597862378663 10.380997005569336 11.38361359915367 -1 3 -11
183 61 2 0.417 0.5250386432843955 10.78626022889812 12.179452481500089 5 1 7
131 44 2 0.417 5.105366850827196 10.963235461409818 10.901940555129706 7 -1 -1
482 161 2 0.417 8.476993179698601 12.591471775993684 12.005927291556368 0 -5 -3
596 199 2 0.417 3.4144329956316497 14.270459888732608 11.067801829008115 -2 -1 -2
130 44 1 -0.834 4.854519011710513 10.213685154174325 11.441830910493175 7 -1 -1
132 44 2 0.417 5.280174450156354 9.464502118777233 11.024968695653689 7 -1 -1
189 63 2 0.417 3.1103553227102916 12.694848137000651 13.218745077237376 4 -4 3
244 82 1 -0.834 2.588809680552463 18.091425663706364 11.873225517975511 -5 -2 0
257 86 2 0.417 8.254546622314981 16.589290536171436 11.857438091715377 -5 -1 0
597 199 2 0.417 4.346092119595816 13.08806392970567 11.228569635093756 -2 -1 -2
481 161 1 -0.834 8.410223918917373 13.404049148420382 11.504437669006572 0 -5 -3
194 65 2 0.417 4.840310243647747 16.026089925807234 10.22537747628226 3 -2 -1
258 86 2 0.417 8.403821657684414 15.167900160919386 12.356699213490472 -5 -1 0
349 117 1 -0.834 1.7666372002025938 10.53397411830688 10.765694839504183 5 4 11
483 161 2 0.417 7.7343923798558105 13.227338963053786 10.85002409066443 0 -5 -3
331 111 1 -0.834 8.183537034763766 10.471275532000478 12.014781167799963 -1 3 -11
510 170 2 0.417 0.7540167994949599 13.378198910326018 11.438516841141375 1 1 0
212 71 2 0.417 6.113084608255101 16.04273174370824 12.48362515152906 0 4 -4
351 117 2 0.417 2.609093977477974 10.346844693516779 11.179797618422059 5 4 11
333 111 2 0.417 8.381995255658026 9.57398912354256 12.282593293182758 -1 3 -11
256 86 1 -0.834 8.159937100019562 16.048573367974132 12.641597667327789 -5 -1 0
245 82 2 0.417 3.1926131024933673 18.369614312002312 12.561894212494872 -5 -2 0
211 71 1 -0.834 5.285504275296261 16.0745963049209 12.00370086096243 0 4 -4
181 61 1 -0.834 0.31544412233688496 10.803271563213515 13.113268695356565 5 1 7
408 136 2 0.417 5.3924861696015425 10.79247237232598 13.271501154756356 0 -1 -1
420 140 2 0.417 0.9805323897215324 17.68251902783554 9.363307631471239 6 6 -4
193 65 1 -0.834 4.2626043901866995 15.78153421764756 9.502411058484562 3 -2 -1
213 71 2 0.417 4.6479868076730915 15.679036444602277 12.598121362031929 0 4 -4
350 117 2 0.417 1.992590359801809 11.0086568346195 9.9657864247291 5 4 11
90 30 2 0.417 6.000052154391763 17.87900238176975 10.209100494709643 2 -5 2
238 80 1 -0.834 5.414819715092436 12.495518394845899 9.847650449022595 0 -4 4
463 155 1 -0.834 0.6156178441675588 16.99159852070115 13.260234761522547 7 -1 0
387 129 2 0.417 9.15642590273206 17.640775263134053 13.533888442145727 -1 -3 4
246 82 2 0.417 1.9935491916470693 17.480924309158308 12.30817974625684 -5 -2 0
228 76 2 0.417 0.4926776575780993 13.762712557279476 13.347771746353205 -1 7 0
127 43 1 -0.834 8.764318681122521 17.45308288142834 10.452692798328068 2 -2 4
177 59 2 0.417 1.673139976002444 9.652701207524169 13.871182472797999 3 -1 -3
128 43 2 0.417 8.993074256615753 18.380871309789942 10.396911857839916 2 -2 4
240 80 2 0.417 4.751934049372389 12.917735673949812 9.301255731376568 0 -4 4
407 136 2 0.417 6.1139582732521855 9.862841962526698 14.223950919418353 0 -1 -1
218 73 2 0.417 3.8288987193359527 15.31612195990973 15.556913015303202 -2 -7 0
174 58 2 0.417 2.9226580273079557 9.666214482576354 17.771358330113973 -2 7 -3
414 138 2 0.417 6.162807875343425 12.653876393175452 15.936706566760558 0 1 -4
309 103 2 0.417 8.483819946625283 14.83995696974899 17.831376439447904 1 1 -1
35 12 2 0.417 8.38934768001811 14.117133175598163 15.27254554528862 0 2 3
294 98 2 0.417 8.311452893939741 11.486337988512961 16.445300746897566 1 2 -3
410 137 2 0.417 3.8951545046878193 16.57068002961698 17.208817058329203 -1 2 1
512 171 2 0.417 4.850257141588012 12.90157397000212 17.99818460538087 5 5 2
437 146 2 0.417 0.3043964861774987 11.387234121463282 15.13994150697119 -1 2 6
81 27 2 0.417 7.466944056379857 15.944685975536089 14.334353553529407 0 4 1
292 98 1 -0.834 8.777206443098038 11.456017588179161 15.609605704456568 1 2 -3
409 137 1 -0.834 3.4521107350822047 17.06702310623032 17.896994311671797 -1 2 1
445 149 1 -0.834 2.9838531027234194 16.008959196578978 14.281922721836981 9 -7 3
79 27 1 -0.834 6.925883400617825 16.09426085467222 15.109668428202802 0 4 1
34 12 1 -0.834 9.286207754456555 14.442201233472353 15.193774897658182 0 2 3
413 138 2 0.417 6.169930306039231 14.076918762440867 15.420184635020213 0 1 -4
513 171 2 0.417 4.478120340014798 11.562764088795243 17.397353921978723 5 5 2
64 22 1 -0.834 2.7214966335050494 11.173920885878037 16.59341625266013 3 2 9
293 98 2 0.417 8.127897868835836 11.732257549335941 14.962827705164246 1 2 -3
406 136 1 -0.834 5.835333064123879 10.772659151124207 14.119868046470057 0 -1 -1
511 171 1 -0.834 5.209778281151153 12.039354198331646 17.78948973004301 5 5 2
227 76 2 0.417 1.6177043305066638 13.893967718313949 14.352252852384954 -1 7 0
385 129 1 -0.834 9.213002199322 18.05137128855005 14.396699304128626 -1 -3 4
215 72 2 0.417 6.942254031468337 11.762487273359254 18.294588376093493 -3 6 5
219 73 2 0.417 5.240568706982002 15.741225304404814 15.900962849528911 -2 -7 0
447 149 2 0.417 3.2273336618185438 16.929365491877487 14.182919837928281 9 -7 3
66 22 2 0.417 2.8203949353317457 11.64267450343737 15.764729772276736 3 2 9
65 22 2 0.417 1.7925721890840207 11.25923221062541 16.808016708678487 3 2 9
217 73 1 -0.834 4.480961340589602 15.280078328277598 16.25673264820332 -2 -7 0
412 138 1 -0.834 6.749888707441482 13.34490729616756 15.63004016225213 0 1 -4
308 103 2 0.417 7.583129828120523 15.479887736569609 16.796416948420433 1 1 -1
307 103 1 -0.834 7.874295186426386 15.566944209453716 17.704093084834703 1 1 -1
80 27 2 0.417 6.976683798991547 17.038331471997505 15.259274987639158 0 4 1
187 63 1 -0.834 3.2540805810760753 12.668774822837863 14.164734125292119 4 -4 3
411 137 2 0.417 2.6720963788623133 16.551007405089692 18.100801940781942 -1 2 1
226 76 1 -0.834 0.7093486666745015 14.151701018938223 14.195104970253217 -1 7 0
188 63 2 0.417 4.182077357755201 12.454648970356262 14.260671876183242 4 -4 3
446 149 2 0.417 2.042869184053462 15.989546810969086 14.107553971144805 9 -7 3
465 155 2 0.417 0.13696522988769289 16.973231748668994 14.08896046157613 7 -1 0
274 92 1 -0.834 10.607181981308813 6.430498084946554 3.724697814473315 3 -6 -4
395 132 2 0.417 14.270248889404655 0.2912216131488205 4.2855029342785 6 3 1
40 14 1 -0.834 16.170015210583912 6.239312565747074 1.716148341046533 -4 -1 2
625 209 1 -0.834 9.730518392531403 3.418552138339175 2.429663168239664 1 1 0
290 97 2 0.417 17.548839837756763 8.661045972805248 1.8136940510836967 -2 -2 -2
275 92 2 0.417 10.015118576120582 7.060499644298934 3.3138560739898155 3 -6 -4
335 112 2 0.417 14.523170070767147 6.505046701235569 2.5969924578684576 -1 3 2
507 169 2 0.417 17.05486875405053 1.589259921435789 2.5995728678646817 -3 2 2
45 15 2 0.417 17.109035334390686 2.6317999627146964 0.9383617924003709 3 -1 -2
71 24 2 0.417 12.121625372977999 8.613830903436847 2.957959033873513 -1 0 -4
295 99 1 -0.834 15.601293579124755 2.570331714863525 2.329648670952817 -4 -6 -3
253 85 1 -0.834 12.31682757756092 3.791787692616492 4.397614569252649 -3 3 4
297 99 2 0.417 14.95241024332681 3.1409850226907907 1.9178998240072749 -4 -6 -3
649 217 3 1 11.685595394334978 4.9028875895213355 2.3919195573112004 3 -1 -2
150 50 2 0.417 12.310030607006443 0.7763089984709388 1.3034189388052135 -4 4 -3
517 173 1 -0.834 17.574991625232787 8.080200225808458 3.5413212007426456 -4 1 1
314 105 2 0.417 10.413211827462375 2.1530538916393067 1.2828701184108189 8 6 0
514 172 1 -0.834 9.534743388861095 8.802261144946641 2.702707151444049 -1 -1 -1
518 173 2 0.417 16.87182219172319 8.522912143444573 4.016495766654196 -4 1 1
490 164 1 -0.834 13.173249449140096 3.9689713371143798 0.8503594852916381 -3 -1 -4
72 24 2 0.417 12.920972325170261 7.770892577805322 1.9871888991630513 -1 0 -4
41 14 2 0.417 16.37069858703479 5.874749795716661 2.5781531056649616 -4 -1 2
334 112 1 -0.834 13.791505462294936 6.0798218856540505 3.044298512332221 -1 3 2
491 164 2 0.417 13.27644518803667 3.2289792046871764 0.25203299111419397 -3 -1 -4
519 173 2 0.417 17.65520971194171 7.228282372059081 3.970311882021286 -4 1 1
336 112 2 0.417 14.119811161896195 5.901804506137759 3.925636754319597 -1 3 2
475 159 1 -0.834 16.98891042129008 5.438516804709796 4.377479090951417 -3 4 -4
149 50 2 0.417 13.1634550926664 0.2187918550227303 2.422676094036785 -4 4 -3
289 97 1 -0.834 17.588175523122533 9.003632402421827 0.9207665314361156 -2 -2 -2
296 99 2 0.417 15.611191479513533 2.8413871899396193 3.2476154747079926 -4 -6 -3
70 24 1 -0.834 12.322328963408046 8.516725086058242 2.027088223949305 -1 0 -4
315 105 2 0.417 10.266426909969399 0.7458042088484016 0.7443556476059818 8 6 0
42 14 2 0.417 16.80245087323053 5.8267061033180045 1.127919668599089 -4 -1 2
505 169 1 -0.834 17.831906209921694 1.1795212844498657 2.979782196430563 -3 2 2
313 105 1 -0.834 10.882842430226377 1.4763305724193765 0.7953000142233556 8 6 0
492 164 2 0.417 13.841031994508885 4.596384235822048 0.5734992047637888 -3 -1 -4
276 92 2 0.417 10.596435535833836 6.661498416129126 4.653544062276221 3 -6 -4
148 50 1 -0.834 13.063776289574223 0.21052534275504128 1.470716169362513 -4 4 -3
44 15 2 0.417 16.740178599014598 1.343142159546098 0.23465656812544805 3 -1 -2
506 169 2 0.417 17.526478625937344 0.8073415018008014 3.807083921887038 -3 2 2
476 159 2 0.417 16.65964669746394 4.5438641542920015 4.463583659748049 -3 4 -4