LAMMPS (23 Jun 2022)
#LAMMPS init file for NaCl dissociation in water
# ------------------------------- Initialization Section --------------------
units        real                            # A, fs, Kcal/mol
atom_style   full                            # Accepts positions, masses, bonds, angles, charges
pair_style lj/charmm/coul/long 9.0 10.0      # Classical LJ style potential + coulomb interaction with two cutoffs
bond_style  harmonic                         # Uses an harmonic potential around an equilibrium value for bonds
angle_style harmonic                         # Uses an harmonic potential around an equilibrium value for angles

# ------------------------------- Atom Definition Section -------------------
read_data    "../NaCl_216wat.data"           # Read from file the positions, masses, velocities, bonds and charges of the atoms
Reading data file ...
  orthogonal box = (0.12622049 0.12622049 0.12622049) to (18.47378 18.47378 18.47378)
  2 by 2 by 4 MPI processor grid
  reading atoms ...
  650 atoms
  reading velocities ...
  650 velocities
  scanning bonds ...
  2 = max bonds/atom
  scanning angles ...
  1 = max angles/atom
  reading bonds ...
  432 bonds
  reading angles ...
  216 angles
Finding 1-2 1-3 1-4 neighbors ...
  special bond factors lj:    0        0        0       
  special bond factors coul:  0        0        0       
     2 = max # of 1-2 neighbors
     1 = max # of 1-3 neighbors
     1 = max # of 1-4 neighbors
     2 = max # of special neighbors
  special bonds CPU = 0.001 seconds
  read_data CPU = 0.025 seconds

group wat type  1  2                         # Define a group for the water molecules (types 1=O, 2=H)
648 atoms in group wat

# ------------------------------- Settings Section --------------------------

### TIP3P Potential Parameters --> Water ###
set type 1 charge -0.834                     # Set charge for O
Setting atom values ...
  216 settings made for charge
set type 2 charge  0.417                     # Set charge for H
Setting atom values ...
  432 settings made for charge
pair_coeff 1 1 0.1521 3.1507                 # Set O interaction parameters
pair_coeff 2 2 0.0460 0.4000                 # Set H interaction parameters
pair_coeff 1 2 0.0836 1.7753                 # Set O-H interaction parameters
bond_coeff  1 450 0.9572                     # Set O-H bond parameters
angle_coeff 1 55 104.52                      # Set H-O-H angle parameters
kspace_style pppm 1.0e-5                     # final npt relaxation
pair_coeff 3 3  0.3526418 2.1595384928       # Set Na interaction parameters
pair_coeff 4 4   0.0127850  4.8304528498     # Set Cl interaction parameter

# ------------------------------- Run Section -------------------------------

# The dump command is used to print output, here: atom-id, molecule-id, lammps-type, xyz coord, image-xyz (for PBC box)
dump         1 all custom 500 traj_biased_dist.lammpstrj id mol type x y z ix iy iz

timestep     2.0                                       # fs

# The fix command is used to act on your system
fix          fxnvt all nvt temp 300.0 300.0 500.0      # 300K Nose-Hoover thermostat to sample the NVT canonical ensemble, tau = 500*dt
fix pl all plumed plumedfile plumed.dat outfile p.log  # Make LAMMPS aware that we want to use PLUMED! Load the plumed.dat input file
fix fRattleWat wat rattle 0.0001 10 0 b 1 a 1        # Fix bonds and angles of water molecules, allow to use longer dt and it's fine for us
       0 = # of size 2 clusters
       0 = # of size 3 clusters
       0 = # of size 4 clusters
     216 = # of frozen angles
  find clusters CPU = 0.001 seconds

# The thermo command computes the thermodynamic quantities we may be interested in, can specify which ones with thermo_style
thermo         500                                       # compute and print on screen every 500dt
thermo_style   custom step temp press epair etotal

run            2500000                                    # run the simualtion for N steps
PPPM initialization ...
  using 12-bit tables for long-range coulomb (../kspace.cpp:342)
  G vector (1/distance) = 0.30520329
  grid = 16 16 16
  stencil order = 5
  estimated absolute RMS force accuracy = 0.0030333252
  estimated relative force accuracy = 9.1347686e-06
  using double precision KISS FFT
  3d grid and FFT values/proc = 2475 256
Generated 5 of 6 mixed pair_coeff terms from arithmetic mixing rule
Neighbor list info ...
  update every 1 steps, delay 10 steps, check yes
  max neighbors/atom: 2000, page size: 100000
  master list distance cutoff = 12
  ghost atom cutoff = 12
  binsize = 6, bins = 4 4 4
  1 neighbor lists, perpetual/occasional/extra = 1 0 0
  (1) pair lj/charmm/coul/long, perpetual
      attributes: half, newton on
      pair build: half/bin/newton
      stencil: half/bin/3d
      bin: standard
Per MPI rank memory allocation (min/avg/max) = 9.608 | 9.611 | 9.613 Mbytes
   Step          Temp          Press          E_pair         TotEng    
         0   306.42593     -1862.5084     -2545.2648     -2149.7637    
       500   319.952        800.90125     -2342.575      -1932.0059    
      1000   299.66542      1130.495      -2319.4911     -1935.1058    
      1500   310.18319      2287.0449     -2301.0578     -1901.0093    
      2000   298.88398      3165.8712     -2273.6598     -1890.0041    
      2500   296.40212     -527.81944     -2316.7249     -1936.1034    
      3000   302.37205      35.196066     -2330.2603     -1941.4231    
      3500   313.02042      1719.7722     -2286.8735     -1882.5382    
      4000   298.34041      600.48512     -2312.8142     -1929.0182    
      4500   296.07696      1525.2545     -2323.8668     -1942.9337    
      5000   277.85657      336.45372     -2340.2538     -1983.0555    
      5500   285.76773      418.22096     -2283.2572     -1915.0375    
      6000   304.41452     -282.09787     -2313.6471     -1921.3317    
      6500   295.59236      2724.5607     -2342.7519     -1963.6236    
      7000   294.16522     -220.00653     -2335.9308     -1958.6445    
      7500   296.48329     -96.216942     -2289.819      -1909.4138    
      8000   294.90008     -327.37234     -2317.8029     -1939.5681    
      8500   309.43067      7.3680321     -2355.5592     -1958.1021    
      9000   302.42002      1788.7188     -2307.9324     -1919.141     
      9500   333.28952      568.28673     -2288.4579     -1859.4774    
     10000   291.53089      1084.7199     -2294.1566     -1919.2869    
     10500   281.97646      686.09583     -2312.6802     -1949.3804    
     11000   314.49074      1278.2396     -2309.7625     -1904.5753    
     11500   306.61511      859.88851     -2296.8211     -1901.6591    
     12000   283.49356      895.57265     -2292.1002     -1926.6044    
     12500   305.28222      1009.7072     -2335.4251     -1943.456     
     13000   292.18131      1249.5163     -2346.9381     -1972.2125    
     13500   320.8665       1648.8517     -2349.9183     -1936.7347    
     14000   291.24295      549.55613     -2299.3283     -1924.318     
     14500   303.16208      2794.4195     -2262.6266     -1872.78      
     15000   305.65139      1271.8344     -2254.9398     -1861.4376    
     15500   305.69999      393.85387     -2312.6799     -1918.2529    
     16000   283.36808      1586.2511     -2307.4456     -1941.6162    
     16500   284.5969       194.95847     -2336.9375     -1969.7054    
     17000   301.55191     -388.38333     -2312.0817     -1923.7129    
     17500   300.97411      616.54822     -2300.6543     -1912.7549    
     18000   313.04936      1392.3351     -2354.6357     -1951.1263    
     18500   271.46339     -1286.1703     -2358.0707     -2007.8364    
     19000   310.45208      1001.1361     -2352.7856     -1952.2761    
     19500   304.89226      1616.3836     -2312.3793     -1918.9194    
     20000   307.84654      2478.3774     -2308.6375     -1911.6906    
     20500   294.2023       1394.8613     -2332.7415     -1953.6389    
     21000   292.18849      179.95147     -2295.5317     -1918.4005    
     21500   291.91247      1211.5562     -2281.673      -1904.9733    
     22000   301.62685      913.78532     -2338.9392     -1949.5079    
     22500   290.1034      -214.31196     -2324.9629     -1950.4929    
     23000   284.61761      2040.39       -2315.9868     -1948.4151    
     23500   293.54326      2454.8118     -2359.1333     -1980.7851    
     24000   280.35105      62.602702     -2333.6129     -1971.999     
     24500   299.19445      830.91385     -2318.4955     -1932.2245    
     25000   316.9462      -406.28221     -2316.9745     -1907.8925    
     25500   279.82508      1648.4748     -2313.9536     -1953.4524    
     26000   302.58388      808.56989     -2315.3231     -1925.4922    
     26500   301.12651      1159.8591     -2304.738      -1916.2997    
     27000   274.43711      599.23298     -2292.8332     -1939.4546    
     27500   276.47577     -28.447264     -2343.3688     -1986.5957    
     28000   302.11853      759.02442     -2323.8429     -1933.8134    
     28500   316.19262      1219.4647     -2310.5062     -1904.0711    
     29000   317.30816      1255.5183     -2327.6242     -1918.4959    
     29500   283.5507       589.13192     -2307.7467     -1942.2135    
     30000   318.14235      808.77764     -2322.6574     -1911.7045    
     30500   300.68954     -853.67512     -2348.7545     -1960.6684    
     31000   279.84961      1755.4053     -2293.3201     -1932.6142    
     31500   313.55531      857.45085     -2310.7957     -1908.4828    
     32000   283.64855      746.82823     -2307.4245     -1943.4609    
     32500   292.68302      630.00153     -2356.1043     -1980.5727    
     33000   295.23255      917.19441     -2308.9803     -1929.5752    
     33500   303.04199      553.56421     -2308.1421     -1918.5244    
     34000   294.0523       2636.8586     -2304.5105     -1926.3085    
     34500   298.61074      1523.849      -2343.2185     -1958.8823    
     35000   299.85179      501.85729     -2289.8713     -1904.7862    
     35500   299.10456      733.63306     -2283.9398     -1898.8666    
     36000   314.27607     -179.00584     -2340.5925     -1936.8413    
     36500   272.75739      1268.9519     -2343.7481     -1992.4826    
     37000   307.63785      1993.3369     -2355.5419     -1959.0046    
     37500   307.31547      456.32041     -2332.5023     -1936.3091    
     38000   267.85415      1806.8498     -2301.4988     -1957.2532    
     38500   298.52253      1075.3158     -2303.5422     -1918.3193    
     39000   304.86904      1591.9585     -2301.2181     -1907.5606    
     39500   283.85382      741.24628     -2322.2801     -1956.5522    
     40000   286.28516      1535.8206     -2334.6531     -1966.1829    
     40500   319.55774      477.25855     -2323.7788     -1911.6432    
     41000   284.86906      1794.5721     -2292.6856     -1924.9597    
     41500   306.26746      1482.9844     -2359.4895     -1965.0591    
     42000   292.93421      2317.3885     -2366.7323     -1989.9242    
     42500   290.65359      229.41131     -2319.4817     -1944.4265    
     43000   294.56111     -64.447948     -2301.0791     -1921.2238    
     43500   316.33985      1641.576      -2286.8523     -1878.6258    
     44000   298.34694      1081.738      -2325.1163     -1939.9949    
     44500   289.33557      797.75028     -2322.8775     -1949.9662    
     45000   300.72935      2546.7346     -2313.458      -1925.0474    
     45500   318.13525      1670.4527     -2320.5275     -1909.9289    
     46000   302.47076      1223.2947     -2345.0128     -1955.8159    
     46500   307.37379     -55.131737     -2322.4886     -1925.6906    
     47000   305.12796      1610.9645     -2263.1334     -1870.7287    
     47500   314.30418      1384.916      -2318.9244     -1913.9015    
     48000   299.33951      440.3706      -2325.3025     -1940.0678    
     48500   314.95346      1612.3457     -2308.9113     -1902.3464    
     49000   306.25701      2653.4986     -2293.4996     -1898.5841    
     49500   278.57636     -305.87578     -2304.6673     -1945.5062    
     50000   303.00207     -447.93821     -2325.0866     -1934.2494    
     50500   302.57265      836.38306     -2295.5583     -1904.7391    
     51000   283.94497      1326.495      -2326.5778     -1959.9559    
     51500   322.64881      113.22571     -2341.7054     -1925.0582    
     52000   316.36366      1085.0746     -2287.2322     -1879.0667    
     52500   331.10992      1736.2823     -2326.3399     -1898.7994    
     53000   299.57819     -122.10973     -2336.5102     -1949.5011    
     53500   295.5306       958.81534     -2294.426      -1912.5533    
     54000   307.5445       714.34447     -2311.75       -1914.8631    
     54500   289.2689       198.82526     -2301.1584     -1928.2996    
     55000   300.43961      887.41489     -2310.0221     -1922.7502    
     55500   288.9452       1011.9923     -2316.2302     -1943.3108    
     56000   307.34666      811.62812     -2309.4182     -1912.9169    
     56500   304.42339      470.97145     -2293.1766     -1900.5626    
     57000   286.02        -323.73221     -2313.3463     -1944.5931    
     57500   299.63034      223.39365     -2304.988      -1918.8871    
     58000   291.93689      1309.4938     -2286.3862     -1909.2852    
     58500   292.34536     -596.15583     -2338.289      -1960.5938    
     59000   321.20806      8.0908413     -2333.9079     -1919.3946    
     59500   300.21894      1025.7496     -2289.2203     -1901.244     
     60000   282.51158      762.26746     -2309.6205     -1944.9108    
     60500   284.54261     -201.9003      -2314.068      -1946.4337    
     61000   299.2822       832.80848     -2319.3289     -1933.5267    
     61500   307.0269       311.44758     -2281.4351     -1884.6635    
     62000   327.41579      614.46756     -2315.6911     -1893.4375    
     62500   294.13585      21.934629     -2314.602      -1935.1435    
     63000   312.11912      668.08833     -2304.0318     -1901.1798    
     63500   309.74588      1401.4963     -2299.9482     -1900.2767    
     64000   296.90987      458.39879     -2313.6663     -1930.7625    
     64500   296.75328      1631.6132     -2330.1806     -1947.3028    
     65000   305.49433      1352.2294     -2289.1255     -1894.9978    
     65500   320.55888      2129.2978     -2340.6451     -1927.1538    
     66000   304.19623      1450.2345     -2332.6863     -1940.0904    
     66500   290.26409      933.00101     -2258.7419     -1884.0848    
     67000   324.48954      1194.4538     -2333.9968     -1915.3337    
     67500   301.25888      1101.2593     -2333.6493     -1945.3694    
     68000   320.33704      554.59368     -2322.7721     -1909.6333    
     68500   316.68155      1026.0445     -2284.4133     -1876.0073    
     69000   294.08335      751.19341     -2313.0811     -1933.4808    
     69500   300.3601       1477.1134     -2339.2263     -1951.8265    
     70000   279.92622      444.35245     -2324.8008     -1963.467     
     70500   312.82179      1356.2187     -2316.5088     -1912.7393    
     71000   302.58922      941.88198     -2328.3309     -1938.1632    
     71500   284.61317      1276.8001     -2334.731      -1967.5069    
     72000   279.73638      2052.2461     -2286.2422     -1925.2232    
     72500   304.19819      1484.7846     -2290.4071     -1898.3372    
     73000   296.31023      1121.4397     -2335.5343     -1952.9412    
     73500   309.18985      111.23171     -2319.6944     -1920.218     
     74000   308.12666      1062.4008     -2305.0149     -1906.9164    
     74500   289.33138      117.89732     -2336.9449     -1963.2449    
     75000   305.78999      103.66193     -2351.9254     -1956.8989    
     75500   283.74007      2802.3263     -2300.3542     -1934.4016    
     76000   313.19204      1549.1185     -2328.2732     -1923.9974    
     76500   309.56727      1944.367      -2330.0139     -1930.4701    
     77000   301.24076     -49.191582     -2365.8781     -1976.9299    
     77500   305.48835      833.78825     -2335.783      -1941.5698    
     78000   292.55806      428.47887     -2302.6021     -1924.9167    
     78500   297.20683      871.59704     -2269.0624     -1885.6211    
     79000   285.06159      1197.0853     -2303.7365     -1935.7967    
     79500   286.05501      1295.4071     -2331.4862     -1962.2674    
     80000   306.33966      2640.1424     -2320.2961     -1924.8271    
     80500   295.1575       690.98091     -2287.8068     -1906.7447    
     81000   295.79605      991.68572     -2285.9408     -1903.9775    
     81500   291.62628      1239.8915     -2324.3783     -1947.8368    
     82000   315.3697       984.08412     -2309.3493     -1902.0821    
     82500   299.40942      1637.252      -2284.4113     -1897.7526    
     83000   309.62419     -695.42226     -2342.9292     -1943.2601    
     83500   302.34283      1977.3006     -2333.9381     -1943.8124    
     84000   290.62164      2305.9699     -2309.0701     -1934.4359    
     84500   292.7048       85.345032     -2287.0415     -1909.5766    
     85000   320.7418       2179.4057     -2264.0928     -1851.1415    
     85500   314.96574      847.37095     -2309.2042     -1903.3184    
     86000   299.22405      2103.3952     -2318.722      -1932.4096    
     86500   283.50724      1246.9236     -2327.8413     -1961.5508    
     87000   288.71727      2835.8998     -2334.1237     -1961.8872    
     87500   296.09451      1308.8665     -2293.4746     -1911.8301    
     88000   307.1878       513.96049     -2314.4882     -1918.3509    
     88500   282.84526      2227.5505     -2332.5453     -1967.7756    
     89000   305.90363      1034.2181     -2315.3565     -1920.757     
     89500   295.08019      651.0642      -2307.7955     -1926.9798    
     90000   290.28063      1366.4406     -2306.6281     -1931.981     
     90500   316.215        2752.9348     -2306.9102     -1898.7896    
     91000   287.96661      1136.24       -2320.6896     -1948.7991    
     91500   308.47007     -693.24346     -2322.8252     -1924.6269    
     92000   299.53153      926.61998     -2314.7675     -1928.1931    
     92500   304.54839      291.80533     -2323.4307     -1930.3497    
     93000   302.57869      1118.2332     -2314.3557     -1923.7401    
     93500   276.57345      990.51464     -2288.3122     -1931.0523    
     94000   305.61085      374.43965     -2290.4271     -1895.8389    
     94500   318.81386      850.90782     -2290.3741     -1878.5878    
     95000   301.17125      2386.4266     -2308.2404     -1919.3636    
     95500   273.63337      1919.7946     -2300.8477     -1947.3184    
     96000   312.77238      2795.6224     -2301.9241     -1898.7664    
     96500   290.8686       616.00363     -2285.0266     -1909.298     
     97000   299.68772      1489.4675     -2336.3252     -1949.2246    
     97500   291.03019     -188.28334     -2305.4726     -1931.3876    
     98000   288.65361      225.43976     -2318.9164     -1947.6668    
     98500   282.65866     -38.133238     -2335.7873     -1970.5887    
     99000   298.89511      2913.9253     -2314.5556     -1928.379     
     99500   310.4403       483.26333     -2313.1853     -1913.8067    
    100000   276.94122      805.16033     -2334.8629     -1977.687     
    100500   305.50127     -170.58674     -2332.4967     -1939.2044    
    101000   309.70357      2018.0559     -2313.2113     -1913.4573    
    101500   298.46014      344.13021     -2320.2028     -1936.3359    
    102000   299.24071      2004.5466     -2334.1502     -1947.7914    
    102500   305.78868      916.86842     -2289.8104     -1894.985     
    103000   317.30457      1162.0129     -2335.2406     -1925.2987    
    103500   310.04882      957.67117     -2337.1887     -1936.5928    
    104000   303.342        986.89511     -2313.2094     -1921.3264    
    104500   305.76008      253.81994     -2288.4718     -1893.6997    
    105000   311.11227     -1006.1942     -2284.6388     -1883.3879    
    105500   299.8952       1019.6439     -2317.59       -1930.8712    
    106000   293.40683      555.82412     -2325.2552     -1946.5398    
    106500   293.49507      936.41687     -2347.3213     -1968.5899    
    107000   300.4311       273.61151     -2303.5404     -1916.1913    
    107500   321.997       -168.69143     -2339.2774     -1923.9104    
    108000   280.3235       1157.1265     -2330.4697     -1968.647     
    108500   310.09141      832.57994     -2322.3535     -1922.0463    
    109000   301.72221      1655.0417     -2304.7044     -1915.4857    
    109500   288.26409      51.214525     -2332.5176     -1960.377     
    110000   311.96527      1721.0945     -2322.6682     -1920.3195    
    110500   297.40186      664.82671     -2294.7376     -1911.2478    
    111000   289.40496     -470.70622     -2324.6655     -1951.479     
    111500   278.55433      1928.0612     -2327.9415     -1967.9911    
    112000   310.67151      702.12826     -2337.4308     -1937.1128    
    112500   334.68361      522.64997     -2315.3827     -1884.1429    
    113000   307.27764      732.08522     -2295.3059     -1898.992     
    113500   285.22645      2686.2739     -2295.449      -1927.4788    
    114000   297.53282     -177.76623     -2317.8322     -1934.1722    
    114500   304.68408      1495.0709     -2277.702      -1885.4485    
    115000   303.54119     -908.0899      -2320.6602     -1929.045     
    115500   310.64021      1083.0589     -2319.2863     -1918.4138    
    116000   312.09181      1072.5888     -2283.4487     -1880.8429    
    116500   288.02682      3499.8213     -2298.9694     -1928.1046    
    117000   298.83995      609.96946     -2318.0088     -1931.8095    
    117500   307.97679      389.24692     -2296.9895     -1899.0819    
    118000   296.78725      57.387059     -2335.0615     -1952.2394    
    118500   287.01662      1002.4595     -2299.5508     -1929.3611    
    119000   306.74894      1100.4258     -2309.2239     -1913.2887    
    119500   290.92359     -336.85796     -2285.8133     -1910.23      
    120000   309.03269      1510.7775     -2272.1224     -1873.1097    
    120500   298.07111      928.26633     -2307.2117     -1922.4102    
    121000   301.79126      1855.5557     -2349.5679     -1960.2114    
    121500   278.44967      692.16424     -2298.1289     -1938.9557    
    122000   291.91819      617.86995     -2288.2943     -1911.3818    
    122500   289.60002      628.04136     -2316.9507     -1943.2494    
    123000   298.71392      1120.8482     -2338.5118     -1952.7896    
    123500   302.937        169.52832     -2288.84       -1897.7161    
    124000   298.93608     -1043.5444     -2321.0094     -1935.557     
    124500   289.06108      98.844672     -2342.6459     -1969.3116    
    125000   299.85963      974.80627     -2291.0648     -1904.234     
    125500   297.41127     -784.61        -2315.4575     -1931.1565    
    126000   299.2772       1183.734      -2322.3852     -1935.6062    
    126500   308.89171      1610.9521     -2286.7807     -1887.5656    
    127000   290.86513      268.54567     -2300.1209     -1924.4039    
    127500   314.29826      909.61773     -2323.4857     -1917.7369    
    128000   297.12392      133.83321     -2339.5323     -1955.904     
    128500   293.57963      2397.9718     -2331.2803     -1952.7228    
    129000   299.46455     -111.41173     -2307.7429     -1921.3682    
    129500   290.14982      244.78128     -2296.486      -1922.266     
    130000   281.21495      743.90171     -2336.8091     -1974.0408    
    130500   285.84402      1882.4548     -2305.8892     -1937.0953    
    131000   291.2963       1520.9649     -2304.3346     -1928.5916    
    131500   304.30084      883.54167     -2324.2744     -1931.391     
    132000   276.55926     -390.10545     -2327.8057     -1970.8263    
    132500   319.16254      1062.8793     -2333.5958     -1921.8082    
    133000   307.4914       1347.1156     -2330.8069     -1934.0718    
    133500   293.59998      2406.1645     -2285.0592     -1906.0164    
    134000   294.89924      629.99035     -2274.5343     -1893.8394    
    134500   296.78619      337.85555     -2327.6573     -1944.3295    
    135000   304.38269      1818.798      -2305.4432     -1912.6038    
    135500   296.43643      1888.2444     -2301.8547     -1919.3213    
    136000   282.15768      1816.3355     -2323.795      -1959.4967    
    136500   308.1088       812.62697     -2309.8847     -1912.065     
    137000   309.71277      1578.28       -2326.669      -1926.7973    
    137500   288.75359      482.82249     -2360.2331     -1987.2845    
    138000   296.40169     -368.7231      -2348.1626     -1965.2775    
    138500   305.28428      893.89511     -2318.6408     -1924.9093    
    139000   300.18428      570.25876     -2313.5355     -1926.0441    
    139500   289.62202      777.6258      -2339.111      -1965.1273    
    140000   307.97544     -663.27406     -2315.4613     -1917.9879    
    140500   308.39677      466.98518     -2316.7362     -1918.3944    
    141000   293.5566       1518.7245     -2345.5624     -1966.5987    
    141500   291.40792      1786.1033     -2324.4102     -1948.6539    
    142000   308.31527      453.01891     -2331.7415     -1933.7227    
    142500   312.48214     -417.86454     -2340.9361     -1937.6126    
    143000   289.08787     -68.157942     -2359.0474     -1985.7023    
    143500   288.65355      767.51257     -2314.5419     -1941.9004    
    144000   309.18124      1585.6383     -2322.0995     -1922.7554    
    144500   314.28236      1295.0045     -2338.4541     -1933.0702    
    145000   287.54289      1752.3292     -2336.549      -1965.2569    
    145500   290.83012      2004.3948     -2282.9273     -1907.3098    
    146000   305.61478      1700.2703     -2302.6818     -1908.2625    
    146500   305.69365      1141.0193     -2359.7135     -1965.096     
    147000   290.90847      368.72621     -2325.4819     -1949.9094    
    147500   289.3299      -1037.8308     -2295.6227     -1921.8896    
    148000   317.48748      2473.8377     -2314.8079     -1905.1483    
    148500   311.07166      502.73516     -2359.1174     -1957.371     
    149000   314.36583      84.754492     -2325.637      -1919.7891    
    149500   301.67221      145.70036     -2289.7335     -1900.674     
    150000   290.07685      909.60053     -2301.6922     -1927.5056    
    150500   283.74881     -291.68997     -2317.2955     -1951.2611    
    151000   309.40768      1016.4769     -2298.6595     -1899.7693    
    151500   299.57769      1620.2535     -2319.4762     -1932.7783    
    152000   299.13774      1677.5873     -2329.6001     -1944.0392    
    152500   299.21699      2233.9831     -2281.1866     -1895.1286    
    153000   292.26264      285.69459     -2315.7391     -1938.8668    
    153500   299.25352      806.49352     -2338.9236     -1952.7186    
    154000   293.63509     -513.74614     -2315.4581     -1936.0951    
    154500   306.68727      1001.6654     -2321.1001     -1925.1084    
    155000   305.13047      1340.193      -2309.4631     -1915.6942    
    155500   298.97725      1141.4655     -2309.7425     -1923.5815    
    156000   303.6291       451.30335     -2345.5242     -1953.8689    
    156500   295.05996     -730.31958     -2336.7745     -1956.1049    
    157000   306.68991      1249.4169     -2303.6092     -1907.6839    
    157500   288.02437     -225.17649     -2308.0503     -1936.1646    
    158000   293.38437      936.31494     -2348.869      -1969.8645    
    158500   296.69402      439.34086     -2312.0693     -1929.1497    
    159000   299.75081      1436.4597     -2311.2006     -1924.1542    
    159500   312.24856      745.99587     -2292.94       -1889.5445    
    160000   302.6499       56.546359     -2300.8649     -1910.0882    
    160500   306.44231      153.3529      -2328.936      -1933.5304    
    161000   295.52623      1024.991      -2287.7532     -1906.3973    
    161500   317.30086      452.76723     -2276.0185     -1866.8048    
    162000   306.29106      990.15716     -2309.835      -1914.2077    
    162500   301.24764      1727.8328     -2296.8504     -1907.8582    
    163000   320.68234      2973.2392     -2314.7987     -1901.6126    
    163500   294.63576      1057.7592     -2333.1641     -1953.1027    
    164000   307.82972      2061.4578     -2310.1831     -1912.9726    
    164500   294.47796      601.12857     -2280.0058     -1899.9592    
    165000   279.51015      881.81425     -2276.7772     -1916.1126    
    165500   290.71808      69.709089     -2346.5794     -1971.1272    
    166000   301.22878     -255.76948     -2323.7848     -1935.0594    
    166500   297.12854      904.83266     -2302.6612     -1919.2949    
    167000   283.06911      1893.9806     -2305.2465     -1939.7602    
    167500   283.40855     -442.74668     -2346.4857     -1980.7206    
    168000   281.7135       1340.305      -2288.1724     -1924.4903    
    168500   300.2857      -37.127494     -2311.6507     -1924.0254    
    169000   294.83686      974.06103     -2343.525      -1962.9037    
    169500   306.32626      491.41347     -2308.378      -1912.9993    
    170000   304.45653      1017.8508     -2297.7457     -1904.4149    
    170500   277.78883      124.72081     -2305.7257     -1947.7821    
    171000   294.37077     -539.78905     -2311.2486     -1931.51      
    171500   305.86696      1706.7793     -2269.2236     -1874.3171    
    172000   287.88099      1156.5872     -2274.6229     -1902.966     
    172500   305.28193      1939.3378     -2312.943      -1918.891     
    173000   298.79397      413.80586     -2312.5896     -1927.1849    
    173500   307.77481      1141.0241     -2318.1747     -1920.5481    
    174000   282.53046      553.27827     -2337.3874     -1972.9473    
    174500   301.35083      432.0616      -2325.888      -1937.0129    
    175000   290.25762      361.86325     -2291.6067     -1916.9374    
    175500   326.20431      790.94156     -2313.2826     -1892.2565    
    176000   306.4531       287.29036     -2298.2374     -1902.409     
    176500   294.03542      1430.968      -2315.8742     -1936.201     
    177000   308.84405      2687.3799     -2288.9891     -1890.2575    
    177500   294.98509      1122.0758     -2288.9039     -1907.8104    
    178000   296.82101      1023.9098     -2317.4801     -1934.5081    
    178500   288.72333      1462.1928     -2319.4856     -1946.8539    
    179000   282.54441      2130.6001     -2337.8983     -1973.1407    
    179500   315.8108       633.13853     -2324.907      -1917.1441    
    180000   293.76505     -51.415815     -2298.0519     -1918.7191    
    180500   290.68124      267.44485     -2344.5523     -1969.1606    
    181000   301.89688      945.33444     -2333.5631     -1943.692     
    181500   284.7197       1493.8311     -2275.2905     -1907.7503    
    182000   302.92876      1623.0513     -2317.452      -1927.0182    
    182500   293.26711      1078.2718     -2337.8805     -1959.4819    
    183000   302.95712      1378.4478     -2323.7238     -1932.9635    
    183500   295.53159      1101.4871     -2292.2968     -1911.2764    
    184000   329.58973      712.06455     -2290.513      -1864.7155    
    184500   285.06279      1570.3977     -2279.106      -1911.2924    
    185000   305.37904      404.13722     -2324.5646     -1931.4439    
    185500   307.95479      962.11887     -2342.7504     -1945.3102    
    186000   279.06287     -134.86051     -2326.0533     -1965.8882    
    186500   302.26424      853.55534     -2302.7246     -1912.4098    
    187000   301.84356      783.39414     -2300.8709     -1910.9932    
    187500   291.76928      733.30353     -2316.0405     -1939.1812    
    188000   300.48428      4287.2214     -2329.1323     -1942.6333    
    188500   289.65445      1833.6903     -2304.6518     -1931.5778    
    189000   311.32069      1786.5284     -2292.5038     -1891.1624    
    189500   284.3103       185.07694     -2308.0333     -1941.3013    
    190000   304.5594       1746.3764     -2321.779      -1928.5469    
    190500   310.2793       714.21266     -2316.0731     -1915.565     
    191000   288.37652      2184.7457     -2340.1614     -1967.6285    
    191500   300.30102      362.44746     -2310.4822     -1922.7417    
    192000   295.84534      586.92746     -2303.4529     -1921.7178    
    192500   277.39436     -601.20009     -2329.3755     -1970.9286    
    193000   302.63475      611.74119     -2312.5103     -1922.2363    
    193500   310.45796      1232.1845     -2310.2211     -1909.8375    
    194000   288.60775      273.34954     -2323.4726     -1951.0161    
    194500   286.58847      410.2149      -2331.5108     -1961.3886    
    195000   313.70536      915.48282     -2304.7635     -1899.7087    
    195500   308.08548      642.37605     -2318.0213     -1920.4017    
    196000   288.24157     -636.31712     -2324.8185     -1952.6464    
    196500   303.56688     -380.98721     -2340.6524     -1948.7012    
    197000   301.97376      51.260711     -2288.7839     -1899.9855    
    197500   291.81704      1388.5111     -2293.7556     -1917.0818    
    198000   291.86728      611.66162     -2333.244      -1956.2066    
    198500   301.23299      1065.119      -2306.4514     -1918.2836    
    199000   309.20078      1672.4662     -2293.7251     -1896.212     
    199500   306.52701      1593.5169     -2336.2775     -1940.2521    
    200000   300.07391     -1218.3571     -2303.9953     -1916.3231    
    200500   317.25581      578.54695     -2307.143      -1898.6454    
    201000   305.9524       107.52911     -2328.6426     -1933.6516    
    201500   324.96967      1013.9735     -2320.2619     -1900.7662    
    202000   295.56547      1902.9656     -2301.3031     -1919.7547    
    202500   305.94076      1040.988      -2338.4382     -1943.1109    
    203000   311.39136      496.62677     -2320.4373     -1918.2625    
    203500   303.06621      474.15095     -2273.2348     -1881.6851    
    204000   303.37987      1919.4607     -2331.1465     -1939.3763    
    204500   311.23984      1458.2658     -2328.3298     -1927.2703    
    205000   317.40833      1968.2037     -2284.8532     -1876.6943    
    205500   305.20159      1150.9358     -2315.3572     -1922.0303    
    206000   296.92035      478.93155     -2305.9461     -1923.9548    
    206500   325.88605      418.19401     -2288.9783     -1868.1374    
    207000   287.01083      2238.1953     -2300.912      -1930.3397    
    207500   280.41629      1637.073      -2301.2501     -1939.1441    
    208000   309.32746      1595.1645     -2300.0612     -1900.3331    
    208500   291.91824     -16.603838     -2263.1034     -1886.0257    
    209000   296.55148     -981.93079     -2320.2721     -1937.2454    
    209500   290.81394     -176.71268     -2301.6149     -1926.2298    
    210000   325.98788      1298.9439     -2297.5205     -1877.1845    
    210500   293.90301      392.32802     -2310.9252     -1931.3618    
    211000   282.73865      478.91687     -2292.1872     -1927.5902    
    211500   303.99071      329.71455     -2296.1757     -1903.7388    
    212000   296.91022      1042.3797     -2311.1448     -1927.8711    
    212500   271.34859      2434.063      -2308.9345     -1958.4184    
    213000   303.7571       2101.071      -2287.3418     -1896.7844    
    213500   293.51925      798.13846     -2313.2224     -1934.0869    
    214000   296.07951      394.76483     -2323.2274     -1940.7888    
    214500   306.99084      1685.1919     -2274.8244     -1879.071     
    215000   307.05082      1426.9119     -2318.5423     -1922.1361    
    215500   279.92461     -777.28424     -2311.2292     -1951.3313    
    216000   312.64172      1458.824      -2328.5915     -1925.3653    
    216500   318.73687      46.407732     -2295.7613     -1885.3141    
    217000   296.0885       2371.5635     -2271.1525     -1889.7277    
    217500   303.43369      734.35249     -2335.4119     -1944.1358    
    218000   286.53619      858.60763     -2315.7976     -1946.2885    
    218500   294.99462      213.67266     -2278.4524     -1898.5909    
    219000   302.72137      709.8604      -2334.9398     -1944.4951    
    219500   284.25309      1874.6736     -2324.9359     -1958.4143    
    220000   303.28107      1725.4396     -2294.8345     -1904.7753    
    220500   297.94854      1061.211      -2308.7441     -1925.3804    
    221000   293.61128      344.40059     -2321.1587     -1943.0036    
    221500   312.06594     -44.710657     -2334.0235     -1931.6118    
    222000   320.68694     -23.64295      -2309.6299     -1896.212     
    222500   279.08743      569.61669     -2304.2499     -1944.485     
    223000   289.52198      1149.5627     -2381.4038     -2008.0779    
    223500   292.23598      538.53608     -2344.9329     -1967.9755    
    224000   297.54041      1605.0805     -2309.6153     -1925.8209    
    224500   305.45578      1332.3052     -2326.6753     -1932.9068    
    225000   291.71774      624.45744     -2351.2261     -1974.9545    
    225500   292.03638      1084.626      -2310.0687     -1933.4103    
    226000   303.4857       359.01539     -2305.2501     -1913.3783    
    226500   317.25861      781.41973     -2284.0339     -1874.5251    
    227000   280.14417      145.8895      -2281.0914     -1919.6944    
    227500   293.56101     -125.22511     -2320.9994     -1942.3859    
    228000   267.68134      939.8835      -2311.359      -1965.9949    
    228500   301.72208      2508.2574     -2306.4111     -1917.4084    
    229000   304.27829      988.70939     -2293.201      -1901.4475    
    229500   277.10663      916.72153     -2312.8942     -1954.8735    
    230000   280.2819       1272.727      -2303.2228     -1941.0245    
    230500   296.26755      1258.8334     -2278.8888     -1896.4412    
    231000   299.58936      1274.8905     -2308.9066     -1922.3152    
    231500   298.01203      626.61367     -2317.6039     -1932.8605    
    232000   307.78916      1239.9897     -2266.6295     -1869.2197    
    232500   300.86062      1309.6326     -2303.3662     -1915.0622    
    233000   279.21631      870.65591     -2304.5187     -1944.1886    
    233500   298.32955      3001.8763     -2300.4263     -1915.3819    
    234000   300.87604      735.13307     -2282.6105     -1894.2417    
    234500   292.70277      2290.5526     -2324.9886     -1946.9666    
    235000   312.60081      2386.172      -2342.7659     -1939.4991    
    235500   312.30371      1582.4341     -2291.6064     -1888.1424    
    236000   299.05316      2427.5774     -2317.9152     -1931.9894    
    236500   292.93929      265.32015     -2338.6452     -1960.6581    
    237000   314.97356      1075.4401     -2322.987      -1916.4764    
    237500   302.81568     -621.63615     -2305.9979     -1915.6215    
    238000   311.30946      1276.0993     -2337.8763     -1936.1554    
    238500   287.54523      588.38795     -2326.086      -1955.0955    
    239000   310.00662      383.09995     -2306.4111     -1906.6827    
    239500   318.37971      759.62069     -2331.8033     -1920.7172    
    240000   295.61732      281.03486     -2357.1784     -1976.5189    
    240500   293.38004      615.3348      -2318.7653     -1939.8626    
    241000   303.88253      1598.6836     -2312.5725     -1920.0762    
    241500   312.41717      925.47571     -2323.0651     -1919.7259    
    242000   288.80351      1375.2423     -2334.7506     -1962.0233    
    242500   319.45035      323.85957     -2326.8323     -1914.5485    
    243000   300.43124      1425.5011     -2305.3923     -1917.7805    
    243500   292.67616      35.129805     -2325.3463     -1947.9464    
    244000   293.46759     -69.045203     -2340.8104     -1962.2107    
    244500   308.05962      1500.2892     -2310.3203     -1912.7371    
    245000   277.97408      752.06439     -2302.0955     -1943.2054    
    245500   284.61394      193.24638     -2361.615      -1994.1218    
    246000   313.96872      810.48989     -2354.2684     -1948.8281    
    246500   310.22421      2420.9316     -2339.6451     -1939.2719    
    247000   282.30805     -1205.9381     -2339.8718     -1975.4019    
    247500   314.65783     -746.31094     -2325.3945     -1919.1264    
    248000   307.63003      614.37865     -2332.3516     -1935.2084    
    248500   274.49385      944.26519     -2313.9053     -1959.6162    
    249000   310.82131      1913.3526     -2304.8723     -1903.4567    
    249500   306.5185       642.0698      -2334.3158     -1938.3711    
    250000   270.83523      1307.6336     -2308.0487     -1958.3997    
    250500   307.60453      445.22146     -2331.5276     -1934.6196    
    251000   285.13025      1941.3302     -2282.5009     -1914.0416    
    251500   297.99909     -80.983075     -2309.8116     -1925.1593    
    252000   297.53845      706.72429     -2344.9134     -1961.2194    
    252500   301.46461      801.08336     -2321.462      -1932.2894    
    253000   306.13347      97.328087     -2297.9407     -1902.4115    
    253500   293.20756      1128.3293     -2314.0539     -1935.6143    
    254000   310.59812     -235.91758     -2285.3684     -1884.6615    
    254500   304.15882      1312.2717     -2318.4889     -1925.7419    
    255000   288.5754       10.617734     -2316.4476     -1943.6625    
    255500   308.1382       1404.4983     -2319.1344     -1921.2894    
    256000   285.26712      1701.6802     -2321.9279     -1953.2746    
    256500   280.57351      36.843573     -2321.2026     -1958.8541    
    257000   306.84697      1048.8945     -2304.9299     -1908.9211    
    257500   294.44143      66.75222      -2303.6837     -1923.5181    
    258000   279.58223      105.65976     -2332.9583     -1972.9294    
    258500   290.63072      1099.9314     -2318.8517     -1944.1645    
    259000   296.92005      751.53131     -2301.2838     -1919.4238    
    259500   317.34267      2698.8462     -2316.739      -1907.7582    
    260000   295.68476      509.39274     -2312.1415     -1930.363     
    260500   300.90078     -650.81281     -2332.8551     -1944.814     
    261000   275.79904      2464.5398     -2302.5941     -1946.3737    
    261500   312.07789      1919.4399     -2317.7445     -1914.5613    
    262000   285.85189      252.40312     -2324.0726     -1954.6898    
    262500   290.02315     -580.2119      -2378.3693     -2003.8695    
    263000   304.16358      327.58922     -2344.1835     -1951.9969    
    263500   290.43183      1268.0756     -2289.7976     -1914.9491    
    264000   334.7891       1327.7794     -2308.1372     -1877.4282    
    264500   312.43316     -112.5673      -2285.5193     -1882.0162    
    265000   302.76465     -468.37386     -2313.6921     -1922.802     
    265500   283.92386      724.39862     -2314.1886     -1947.8381    
    266000   303.40062      2433.1292     -2361.2734     -1969.9469    
    266500   314.79528      1669.2466     -2316.1423     -1909.8407    
    267000   317.09174     -27.565988     -2338.0771     -1928.8564    
    267500   276.38091      791.48654     -2323.8194     -1967.1024    
    268000   310.23712      1227.5282     -2302.1309     -1901.4906    
    268500   307.9589       679.22441     -2326.4691     -1929.0367    
    269000   278.88283      989.13604     -2317.5479     -1957.4703    
    269500   311.382        3034.7118     -2327.8946     -1925.7865    
    270000   291.77872      1589.9857     -2298.4513     -1921.7769    
    270500   304.67797      1309.6254     -2304.3068     -1910.9627    
    271000   311.32103      385.07137     -2348.6559     -1946.7532    
    271500   285.10812      695.21151     -2335.2984     -1967.2276    
    272000   297.10854      1044.2294     -2294.8051     -1911.2949    
    272500   298.71883      823.92921     -2320.5593     -1934.8705    
    273000   281.43717      130.98161     -2322.9624     -1959.6026    
    273500   292.4662       587.40784     -2295.567      -1918.1142    
    274000   280.67629     -330.57652     -2283.6343     -1921.3654    
    274500   283.32787      3505.3706     -2343.063      -1977.3131    
    275000   306.19082      1262.5086     -2355.2969     -1959.8342    
    275500   319.1975       619.50637     -2326.234      -1914.5726    
    276000   311.46686      45.421622     -2322.5197     -1920.9306    
    276500   304.4356       1582.2609     -2326.4317     -1933.7735    
    277000   297.89051      1050.664      -2324.7106     -1940.6013    
    277500   309.82498      2071.3683     -2305.1251     -1904.9958    
    278000   300.52412      986.03125     -2310.4059     -1922.2929    
    278500   298.13417     -189.48729     -2332.8369     -1947.6212    
    279000   310.65195      1553.9799     -2314.1766     -1913.1484    
    279500   312.20819      1479.8557     -2284.4163     -1881.4572    
    280000   307.38874      13.41385      -2313.0868     -1916.2007    
    280500   305.59901      761.60574     -2333.7164     -1939.544     
    281000   312.18134     -77.317212     -2313.6717     -1910.5917    
    281500   303.44444      2036.2387     -2296.7898     -1904.9989    
    282000   290.62666      1796.9378     -2314.3698     -1939.1211    
    282500   304.45469      2200.6484     -2316.2069     -1923.0127    
    283000   308.69386      438.91794     -2273.8899     -1875.3924    
    283500   312.41437      2167.6401     -2327.0497     -1923.798     
    284000   297.5343       729.61517     -2324.298      -1940.117     
    284500   284.86564     -4.9080263     -2335.1439     -1967.3651    
    285000   309.40191      811.6005      -2315.9005     -1916.4542    
    285500   306.11293      1348.4201     -2322.9598     -1927.9583    
    286000   271.36613      1373.003      -2328.1095     -1978.1646    
    286500   293.27801      1910.2142     -2293.2366     -1914.7495    
    287000   302.71153      286.14876     -2326.266      -1935.6936    
    287500   291.65661      756.51723     -2347.5861     -1971.0848    
    288000   314.00232      1401.4363     -2315.5435     -1910.2444    
    288500   307.38984      1480.5822     -2319.0135     -1922.3517    
    289000   290.08666      700.68866     -2331.351      -1957.0471    
    289500   301.08902      1347.8828     -2334.3097     -1945.8976    
    290000   298.43196      797.35923     -2293.1752     -1907.8961    
    290500   316.27226      912.55671     -2307.0341     -1899.0084    
    291000   284.07613      14.321238     -2316.3343     -1949.8349    
    291500   297.62289      1110.3895     -2308.5987     -1924.6907    
    292000   287.5609       2407.5404     -2300.0905     -1929.0465    
    292500   309.40567     -255.62531     -2315.066      -1916.0044    
    293000   293.18411     -901.59608     -2280.3928     -1902.13      
    293500   311.49497      1203.5276     -2323.9085     -1922.1681    
    294000   287.7033       1667.6909     -2331.4663     -1960.437     
    294500   318.63023      0.31840512    -2326.1046     -1914.9426    
    295000   320.26056      1354.2981     -2336.0505     -1922.7383    
    295500   285.29052      269.19888     -2319.542      -1951.2185    
    296000   299.15276      502.69309     -2375.2948     -1988.8855    
    296500   285.4731       784.99859     -2304.3306     -1935.7597    
    297000   297.77622     -25.990283     -2292.5348     -1907.7797    
    297500   300.94106      1376.2277     -2307.4026     -1918.6286    
    298000   288.00087     -193.6876      -2335.9877     -1964.0629    
    298500   293.1858       2792.104      -2293.1934     -1914.6476    
    299000   306.89851      1516.2783     -2318.4381     -1922.1727    
    299500   279.73171     -118.76077     -2331.4352     -1970.4031    
    300000   304.84856      729.79176     -2317.0523     -1923.6366    
    300500   294.83997      739.56677     -2294.8298     -1914.351     
    301000   299.86659      693.19453     -2333.8413     -1946.716     
    301500   295.36467      1065.6191     -2351.7595     -1970.3111    
    302000   315.2181       1554.0742     -2328.8974     -1922.0121    
    302500   303.98136      153.67561     -2292.838      -1900.5584    
    303000   288.43443      2663.5192     -2333.2538     -1960.9123    
    303500   301.69149      1035.4733     -2321.8071     -1932.1674    
    304000   283.46548      1520.4787     -2271.2158     -1905.306     
    304500   287.39846     -1604.9775     -2298.6774     -1927.8237    
    305000   284.93559      724.83646     -2359.6928     -1991.6841    
    305500   298.41948      114.08989     -2349.3245     -1964.107     
    306000   293.8946       992.83919     -2302.409      -1923.0776    
    306500   319.93276     -469.28615     -2314.9121     -1901.914     
    307000   298.82323      929.88323     -2352.6923     -1967.2228    
    307500   299.4487       2237.0251     -2304.4712     -1917.8038    
    308000   289.33472      693.76714     -2299.7842     -1926.076     
    308500   293.79447      447.91763     -2345.6022     -1966.5238    
    309000   297.81502      1485.2191     -2321.4845     -1937.2457    
    309500   300.47012     -326.52329     -2302.4642     -1914.7243    
    310000   288.86699      592.12817     -2337.5786     -1964.6943    
    310500   274.29731      513.99282     -2303.7114     -1949.5041    
    311000   305.01958      144.8115      -2309.0561     -1915.4458    
    311500   305.43408      1526.0257     -2304.9922     -1910.5384    
    312000   295.59152     -69.883781     -2305.4489     -1923.8423    
    312500   321.52194      1583.7925     -2353.6581     -1938.4662    
    313000   311.90208      1341.1979     -2301.5175     -1898.7392    
    313500   299.24776      1141.1914     -2285.4397     -1899.1333    
    314000   283.47244      544.90678     -2302.0835     -1936.0082    
    314500   308.39883      1731.9613     -2298.8079     -1900.7489    
    315000   320.4784       2100.9314     -2284.6887     -1870.7636    
    315500   306.72989      56.298213     -2334.5545     -1938.6661    
    316000   314.79924      1069.481      -2327.3476     -1920.899     
    316500   295.24983      915.0035      -2283.3762     -1902.1988    
    317000   283.02981      1231.6082     -2322.5054     -1957.1229    
    317500   294.88579      547.04383     -2337.905      -1957.2364    
    318000   327.75907      1929.7697     -2330.6434     -1907.2518    
    318500   289.97185      2211.0586     -2310.8363     -1936.2432    
    319000   287.45782      192.11796     -2349.8634     -1978.6286    
    319500   307.84535      2257.8979     -2323.9583     -1926.9585    
    320000   321.59488      1007.0002     -2316.1186     -1900.8103    
    320500   286.17284      965.13343     -2320.8921     -1951.1667    
    321000   301.07318      169.83033     -2310.6419     -1921.6163    
    321500   306.11041      2649.4736     -2299.8705     -1904.8302    
    322000   293.54781      1694.4078     -2343.7779     -1964.7965    
    322500   297.12386     -125.41117     -2319.9779     -1936.3777    
    323000   302.10027      550.60733     -2308.5483     -1918.7619    
    323500   311.15399     -114.72635     -2342.4692     -1941.5988    
    324000   295.56282      1855.4435     -2317.2125     -1936.1843    
    324500   299.24405      2211.7798     -2292.3737     -1907.0439    
    325000   316.06983      1817.1724     -2272.1889     -1864.0414    
    325500   296.27411      484.68334     -2309.1496     -1926.8917    
    326000   294.72618     -204.69843     -2298.8664     -1919.1422    
    326500   271.5136       1339.5229     -2307.6419     -1958.1494    
    327000   288.38638      2398.8493     -2291.7577     -1920.7674    
    327500   315.8893       1492.0091     -2327.0133     -1919.973     
    328000   291.49493      671.51519     -2339.4969     -1963.6411    
    328500   283.73943      212.57583     -2333.0895     -1966.6211    
    329000   295.46029     -77.55907      -2324.1112     -1944.1857    
    329500   281.6763       525.50073     -2325.2949     -1962.4174    
    330000   273.91142      230.93435     -2342.1058     -1988.4114    
    330500   297.06107      1959.0638     -2325.8923     -1942.3158    
    331000   297.06454     -602.8787      -2303.4397     -1919.6952    
    331500   300.48514      518.40075     -2337.4067     -1949.4632    
    332000   311.66261      466.03043     -2366.4356     -1965.4707    
    332500   305.63617     -528.30701     -2305.2599     -1910.5701    
    333000   292.67356     -189.85608     -2324.5319     -1946.7263    
    333500   289.03462      1798.6298     -2317.7833     -1945.7987    
    334000   303.63328      722.56974     -2290.4385     -1898.0972    
    334500   298.19625      1840.0835     -2311.8022     -1926.4947    
    335000   288.03608      542.08051     -2316.1334     -1944.0527    
    335500   306.43631      3330.0626     -2309.5036     -1913.693     
    336000   311.80077      1010.4632     -2304.3802     -1901.6072    
    336500   299.03232     -134.29235     -2340.5961     -1954.478     
    337000   314.67573      488.15435     -2338.2468     -1931.6285    
    337500   320.15148     -594.83827     -2299.9193     -1886.4534    
    338000   284.12919     -392.17288     -2285.8406     -1918.8614    
    338500   295.63857      480.52333     -2314.4001     -1932.9068    
    339000   305.68023      614.4428      -2317.3032     -1922.5803    
    339500   317.70659      2184.0969     -2281.7854     -1871.786     
    340000   301.33073      325.2336      -2304.6022     -1916.0048    
    340500   311.16395      294.37835     -2329.2531     -1927.7605    
    341000   289.3444      -514.79889     -2328.7559     -1955.2438    
    341500   299.38884      1878.9716     -2326.2423     -1939.9293    
    342000   310.98094      115.40562     -2301.9015     -1900.2385    
    342500   297.42708      765.64974     -2331.2315     -1947.0525    
    343000   295.18195      1467.3824     -2313.3592     -1932.0188    
    343500   303.49482      1365.8604     -2299.4816     -1907.3523    
    344000   296.23214      411.68263     -2306.9257     -1924.3368    
    344500   292.14387      2623.4434     -2359.8148     -1982.3048    
    345000   288.24056      1788.7072     -2304.0665     -1931.8087    
    345500   314.93071      1634.7625     -2314.26       -1909.0872    
    346000   292.11589      3031.4442     -2313.6194     -1937.141     
    346500   281.75419      1798.4972     -2348.249      -1984.9186    
    347000   289.7592       1335.4983     -2321.1561     -1947.556     
    347500   314.27504      1273.9601     -2333.0575     -1928.7451    
    348000   306.22188      1260.1965     -2332.7759     -1938.958     
    348500   287.06416      212.58738     -2346.5424     -1976.5408    
    349000   296.15587      491.64135     -2306.8622     -1925.6496    
    349500   296.57818     -579.68053     -2301.821      -1919.3108    
    350000   287.9002       654.00551     -2320.8668     -1950.6348    
    350500   273.65868      959.67901     -2321.6076     -1968.7706    
    351000   319.77976      1086.6076     -2326.4552     -1914.2693    
    351500   282.61286      1455.6128     -2314.392      -1949.8834    
    352000   283.42849      1998.6183     -2297.3252     -1931.7524    
    352500   302.78349     -177.7803      -2291.6312     -1901.8426    
    353000   314.62899      739.45705     -2325.032      -1918.7966    
    353500   279.19827      560.29301     -2315.2793     -1955.0582    
    354000   303.41305      1109.437      -2306.5051     -1914.5222    
    354500   306.8369       642.99836     -2311.151      -1914.9642    
    355000   289.86561      2357.6377     -2325.2682     -1951.231     
    355500   285.09092     -256.50312     -2350.0413     -1982.1611    
    356000   295.46647      1405.115      -2302.2802     -1920.7577    
    356500   298.83205      708.36953     -2330.0837     -1944.3115    
    357000   301.91324      1752.0708     -2348.6309     -1958.7077    
    357500   312.85279      1414.5037     -2303.0792     -1899.0136    
    358000   280.87677      3072.6657     -2301.315      -1938.6026    
    358500   291.52533      1734.449      -2323.431      -1947.165     
    359000   319.59946      1873.0531     -2309.6332     -1897.1317    
    359500   291.80928      810.37519     -2309.1563     -1932.514     
    360000   290.70069      1823.4452     -2331.9345     -1956.6199    
    360500   290.29403      641.90875     -2312.7908     -1938.0803    
    361000   308.9983       1287.7382     -2302.379      -1903.0841    
    361500   323.7897       1923.5343     -2291.7756     -1873.5704    
    362000   302.02343      1208.173      -2325.2224     -1935.1491    
    362500   296.5101       162.5085      -2325.19       -1942.0953    
    363000   313.33162      2214.8285     -2296.2193     -1891.3725    
    363500   297.13491      1099.385      -2293.3651     -1909.4981    
    364000   294.97617      18.402142     -2300.1822     -1919.282     
    364500   288.7711       1469.154      -2315.6898     -1942.4793    
    365000   277.81607      316.67645     -2323.662      -1964.6616    
    365500   313.42916      1302.7922     -2315.803      -1910.7526    
    366000   292.87097      158.28464     -2316.375      -1938.692     
    366500   304.83919      1694.8225     -2307.8451     -1914.2258    
    367000   310.69918      849.81119     -2298.2221     -1897.32      
    367500   296.65261      1696.6064     -2319.4759     -1936.3863    
    368000   303.67908      1246.0368     -2313.2337     -1921.2164    
    368500   306.02013      859.41841     -2318.8769     -1923.8046    
    369000   306.56814      1517.4802     -2300.5173     -1904.6567    
    369500   328.52456      637.61701     -2326.6122     -1902.5017    
    370000   293.26995      1366.0727     -2333.5479     -1954.796     
    370500   317.31877      593.58431     -2338.4662     -1928.8982    
    371000   313.20208      2235.6861     -2293.5224     -1889.2247    
    371500   292.5132       1273.6251     -2304.634      -1927.0218    
    372000   294.86645      979.22328     -2339.9852     -1959.1739    
    372500   285.35698      516.35324     -2364.4159     -1996.0519    
    373000   294.55249      751.47887     -2322.8883     -1942.6223    
    373500   306.68864      1479.6321     -2311.3561     -1915.3289    
    374000   304.61058      2878.9864     -2330.7413     -1937.5644    
    374500   284.47377      507.75921     -2335.7131     -1968.5188    
    375000   311.23318      1676.7881     -2332.7835     -1930.9897    
    375500   299.58002      1472.0133     -2326.1816     -1939.4417    
    376000   303.06652     -27.843116     -2311.0446     -1919.7339    
    376500   308.99042      1520.6303     -2286.4036     -1887.4333    
    377000   308.2928       1518.6035     -2336.016      -1937.9114    
    377500   302.01567      1155.4011     -2343.1934     -1953.3032    
    378000   315.51459      1737.7713     -2301.4664     -1894.3422    
    378500   298.00281     -179.79455     -2315.9811     -1931.2422    
    379000   299.79767      155.15538     -2326.2901     -1939.1927    
    379500   299.77078      1913.7949     -2282.254      -1895.2431    
    380000   292.82549      474.4828      -2282.8455     -1904.7034    
    380500   306.35211      432.69881     -2324.2688     -1928.9981    
    381000   297.54504      970.28697     -2288.1313     -1903.7946    
    381500   309.96554      1553.4449     -2277.3497     -1876.7779    
    382000   315.54833     -502.89255     -2322.4091     -1914.6389    
    382500   310.5181       1684.4424     -2300.5559     -1899.8595    
    383000   286.31627      370.05647     -2273.2698     -1904.0843    
    383500   305.92412      422.53813     -2341.4872     -1946.4297    
    384000   303.90244      2718.3599     -2322.4701     -1930.0128    
    384500   310.04905      1542.5289     -2302.5007     -1902.3016    
    385000   298.24653     -415.78812     -2326.2609     -1941.5148    
    385500   312.53347     -1148.1396     -2323.8807     -1920.3293    
    386000   323.05791      674.74107     -2288.8736     -1872.1452    
    386500   307.94068      1605.7343     -2313.7661     -1916.1483    
    387000   296.70378      2085.4066     -2333.0603     -1949.8499    
    387500   299.70889      1076.9497     -2336.6569     -1949.4726    
    388000   295.04165      1065.6296     -2284.1527     -1903.7261    
    388500   293.05018      796.94607     -2319.7304     -1941.4534    
    389000   298.73235      2097.7864     -2302.4911     -1917.2474    
    389500   303.3177       72.616442     -2269.658      -1878.512     
    390000   305.74093      340.19914     -2327.8386     -1932.702     
    390500   308.42747      951.7683      -2340.7114     -1942.21      
    391000   313.83617      931.6607      -2318.4831     -1913.4937    
    391500   297.69984      523.33878     -2301.0912     -1916.6501    
    392000   292.59506      865.43859     -2333.3043     -1955.9271    
    392500   316.49655      2479.9776     -2338.8813     -1930.626     
    393000   304.65754      1659.9069     -2362.2993     -1969.4057    
    393500   311.15677      694.89046     -2367.0614     -1965.5686    
    394000   315.03752      1039.0031     -2322.7342     -1916.1792    
    394500   295.55389      310.06187     -2321.3515     -1940.1696    
    395000   294.93637      418.0724      -2347.8016     -1967.3373    
    395500   286.79304      1236.8544     -2274.4018     -1904.4224    
    396000   295.47188      1395.8759     -2316.0465     -1934.9743    
    396500   271.51559     -2.7131961     -2318.2195     -1967.7375    
    397000   299.0972       1248.4751     -2301.2988     -1915.1028    
    397500   287.32876      1106.6762     -2282.1756     -1911.2286    
    398000   293.74545      1600.4852     -2338.4306     -1959.1926    
    398500   299.24567      1190.3791     -2287.1144     -1900.6374    
    399000   309.02508     -1328.7736     -2318.381      -1919.6075    
    399500   285.63416      1557.4531     -2316.7273     -1947.9139    
    400000   305.27552      1454.8808     -2288.5313     -1894.3029    
    400500   302.24055      2221.9346     -2299.5243     -1909.3112    
    401000   301.44916      158.97184     -2337.6759     -1948.6203    
    401500   304.49984      1809.3861     -2311.702      -1918.8046    
    402000   330.32134      188.05159     -2296.207      -1869.9959    
    402500   313.23487      896.83887     -2321.9941     -1917.5782    
    403000   294.15863      465.77559     -2323.0481     -1943.1284    
    403500   288.12966      1443.6633     -2367.0677     -1995.1835    
    404000   299.57624      2023.6294     -2360.8579     -1974.1485    
    404500   310.98772      1455.7371     -2332.1712     -1930.7558    
    405000   316.07554      1013.5997     -2302.7234     -1894.6236    
    405500   286.26126      38.960579     -2309.1314     -1939.6411    
    406000   306.78074      533.09942     -2330.3545     -1934.1697    
    406500   315.02492      1409.2424     -2293.1575     -1886.4094    
    407000   281.80992      1396.2426     -2313.9617     -1950.1794    
    407500   297.50506      1267.6097     -2318.3709     -1934.3109    
    408000   311.68369      1502.5456     -2297.9452     -1895.6187    
    408500   296.54459      1319.15       -2308.5143     -1925.7889    
    409000   306.47589      1168.37       -2340.2629     -1944.7756    
    409500   290.26153     -10.287006     -2363.0678     -1988.5565    
    410000   296.45579      658.76192     -2335.5414     -1952.9125    
    410500   296.19954      332.72864     -2298.5711     -1916.3577    
    411000   314.72819      919.15882     -2284.3513     -1878.2298    
    411500   313.05496     -74.697276     -2280.4544     -1876.0038    
    412000   297.19564      1627.1544     -2301.8917     -1918.0985    
    412500   307.30038      1761.2805     -2336.6084     -1939.7959    
    413000   288.49965      1364.0626     -2360.7088     -1987.978     
    413500   282.49645      1038.7739     -2304.8929     -1940.1472    
    414000   308.02487     -1603.5215     -2333.5879     -1935.5323    
    414500   304.65411      1497.4212     -2348.4858     -1955.4208    
    415000   291.59189      813.04025     -2334.3142     -1957.7837    
    415500   315.10292      682.87735     -2332.3635     -1925.7615    
    416000   299.2814       729.49808     -2336.6102     -1950.3934    
    416500   288.7688       2065.1514     -2360.3711     -1987.5499    
    417000   300.93949      2445.463      -2326.232      -1937.7554    
    417500   303.29949      327.27977     -2307.8406     -1916.2611    
    418000   296.03168      904.05257     -2331.4159     -1949.1678    
    418500   296.0168       1631.1695     -2332.3719     -1950.4785    
    419000   311.50261      22.008658     -2314.5251     -1912.7581    
    419500   306.65609      109.91666     -2330.0571     -1934.454     
    420000   273.81596      1041.8096     -2331.9572     -1978.3701    
    420500   301.63935      2730.5181     -2330.8968     -1941.7503    
    421000   298.42015      1155.1494     -2299.6793     -1914.581     
    421500   323.93706      177.27097     -2285.6294     -1867.4433    
    422000   321.24367      1588.7152     -2278.2537     -1863.5789    
    422500   288.97251      956.6165      -2308.4745     -1935.4684    
    423000   298.84229      1328.9292     -2303.328      -1917.5875    
    423500   310.17016      590.51472     -2293.7148     -1893.2516    
    424000   302.89022      706.06258     -2329.7778     -1938.9536    
    424500   295.73849      1188.7422     -2327.0244     -1945.4299    
    425000   296.60475      2463.3439     -2286.0607     -1903.1302    
    425500   295.78671      843.49445     -2313.6995     -1932.1719    
    426000   286.54785      104.81205     -2319.8471     -1949.821     
    426500   300.6894       940.57496     -2284.0788     -1896.1139    
    427000   289.44859      1921.8839     -2301.6239     -1927.8894    
    427500   288.89999      1306.4366     -2333.8421     -1961.0999    
    428000   283.75454      646.25273     -2312.7476     -1946.2848    
    428500   314.88266     -180.18577     -2336.0895     -1929.6232    
    429000   305.62371      864.41039     -2267.3216     -1872.612     
    429500   298.39619      1004.8591     -2299.9248     -1914.6371    
    430000   311.96087      2011.6617     -2329.7262     -1926.9327    
    430500   274.69035      1370.5796     -2328.9648     -1974.2299    
    431000   289.72904      1035.1961     -2315.2595     -1941.0714    
    431500   302.30068      1133.2265     -2312.8591     -1922.5799    
    432000   306.32275      1128.8914     -2292.4716     -1896.9123    
    432500   293.7134       81.99625      -2335.507      -1956.2323    
    433000   308.67785      1232.8416     -2320.9519     -1922.3965    
    433500   303.53524      1239.4683     -2309.4115     -1917.6573    
    434000   284.03479      299.48982     -2331.0876     -1964.3739    
    434500   307.41673      1110.9322     -2312.8478     -1915.9531    
    435000   299.38796      414.17468     -2311.7494     -1925.186     
    435500   276.10966     -539.2915      -2315.0866     -1958.6434    
    436000   309.35949      986.73756     -2334.781      -1935.4495    
    436500   311.60219      376.66502     -2310.212      -1908.0181    
    437000   300.64187      273.61963     -2337.4475     -1949.1886    
    437500   326.74004      661.48086     -2355.5557     -1933.7104    
    438000   312.58187      1110.2729     -2305.2145     -1901.7191    
    438500   296.03536      1032.4698     -2340.3026     -1958.0381    
    439000   317.43359      1668.0028     -2338.6405     -1928.7658    
    439500   308.30998      874.35185     -2344.244      -1946.2658    
    440000   293.1926      -701.34048     -2342.0159     -1963.531     
    440500   286.03635      1197.022      -2282.6967     -1913.3352    
    441000   306.16702      998.66508     -2315.6648     -1920.233     
    441500   291.14693     -71.62682      -2336.0708     -1960.1406    
    442000   302.16171      1738.784      -2315.3282     -1925.1143    
    442500   303.14698      1645.7289     -2300.4971     -1909.008     
    443000   345.28566      1747.2694     -2311.9383     -1866.362     
    443500   308.27751      1180.5688     -2312.2097     -1914.4115    
    444000   308.27126      192.7543      -2335.5289     -1937.5729    
    444500   294.02951      572.27726     -2304.7339     -1925.0701    
    445000   304.79913      1477.0174     -2293.2419     -1899.8783    
    445500   279.5928       673.93831     -2310.8387     -1949.9102    
    446000   310.30435      1441.2859     -2332.9229     -1932.3374    
    446500   302.19412      889.04256     -2289.3779     -1899.5009    
    447000   292.79055      51.985079     -2264.4123     -1886.469     
    447500   291.24552      2118.5709     -2318.0328     -1941.8686    
    448000   293.28987      1467.5955     -2323.7572     -1944.9857    
    448500   309.11701      488.28845     -2346.7252     -1947.847     
    449000   300.52042      937.75825     -2314.5333     -1926.5946    
    449500   293.40282      2558.6672     -2286.5106     -1907.5798    
    450000   312.17318      1323.1936     -2367.8878     -1964.6887    
    450500   287.17017     -18.516356     -2302.7664     -1931.9216    
    451000   308.09782      579.62695     -2309.0328     -1911.1453    
    451500   295.50202     -58.67727      -2305.375      -1923.7073    
    452000   308.56993      803.34398     -2347.6675     -1949.3605    
    452500   292.72559      1014.2136     -2312.8317     -1934.7544    
    453000   296.3463       420.09818     -2287.1112     -1904.3789    
    453500   294.6569       58.789189     -2343.0409     -1962.6042    
    454000   298.27831      2297.6728     -2306.7085     -1921.5897    
    454500   303.96545      2025.823      -2311.0514     -1918.558     
    455000   284.55342      803.25368     -2345.0633     -1977.6424    
    455500   287.01961      502.1279      -2321.108      -1950.6623    
    456000   305.57579      206.48979     -2327.5796     -1933.0343    
    456500   313.9092       1194.3825     -2297.6181     -1892.311     
    457000   281.5824       1834.7953     -2303.7008     -1940.2478    
    457500   285.33666      346.07826     -2306.7679     -1938.311     
    458000   313.72855      343.18779     -2283.3617     -1878.3249    
    458500   328.92783      1041.8165     -2335.8416     -1911.0816    
    459000   289.33785     -57.706668     -2317.6828     -1944.1171    
    459500   302.46895     -518.06226     -2293.8698     -1903.3354    
    460000   318.79576      387.81317     -2306.2018     -1894.5572    
    460500   307.2673      -48.126047     -2325.8366     -1929.0197    
    461000   301.22646      1605.2663     -2319.3949     -1930.8901    
    461500   315.23465      248.97413     -2302.8206     -1895.7897    
    462000   316.00268      550.42654     -2340.0227     -1932.6737    
    462500   294.75966      214.3272      -2317.5624     -1937.5675    
    463000   311.69245      2135.9479     -2317.1872     -1915.4429    
    463500   311.07751      1416.8705     -2334.6397     -1933.0251    
    464000   291.41626      1464.8459     -2325.6313     -1949.3186    
    464500   317.88427     -551.53733     -2302.3597     -1891.8119    
    465000   309.92693      1521.5196     -2313.6429     -1913.4214    
    465500   301.55907      784.03419     -2328.5884     -1939.2125    
    466000   286.47174      549.323       -2330.2474     -1960.3973    
    466500   290.02115      1630.3144     -2290.3363     -1915.7979    
    467000   290.11717      2352.6211     -2273.0552     -1898.1463    
    467500   282.04914      261.26497     -2321.1548     -1956.9506    
    468000   296.67969     -67.624591     -2323.0812     -1940.2791    
    468500   305.64597      251.61687     -2300.4127     -1905.9701    
    469000   317.16233      1528.8017     -2275.0302     -1865.6964    
    469500   313.40529      1325.5104     -2321.7901     -1916.9956    
    470000   287.92632      1378.684      -2311.0925     -1939.2803    
    470500   307.12567      796.01187     -2286.3762     -1889.9523    
    471000   307.65886     -511.75645     -2314.3869     -1917.1039    
    471500   295.2672       720.28504     -2316.5843     -1935.4188    
    472000   316.68724     -208.83222     -2309.2101     -1900.2885    
    472500   309.24065      1157.7503     -2316.4619     -1917.0922    
    473000   286.5979       629.63552     -2309.1366     -1939.2115    
    473500   313.42114      563.30478     -2313.5187     -1908.9095    
    474000   301.82655      188.66457     -2342.9058     -1953.2781    
    474500   316.8947       2038.8986     -2336.0016     -1926.8965    
    475000   325.56517      1442.9251     -2266.3385     -1846.1044    
    475500   301.01853     -619.45229     -2286.1181     -1897.5522    
    476000   300.97028      3738.546      -2322.2572     -1933.6974    
    476500   303.97399      1883.9593     -2368.8805     -1976.3423    
    477000   312.13681      250.15028     -2325.845      -1922.9663    
    477500   292.46712      924.80702     -2293.0856     -1915.5097    
    478000   296.29521      751.34394     -2311.4807     -1928.905     
    478500   305.36179      607.03288     -2349.4963     -1955.5723    
    479000   311.39765      1386.5106     -2301.4707     -1899.6012    
    479500   288.66367      1554.7764     -2302.1992     -1929.8553    
    480000   300.95782      709.80893     -2311.4523     -1922.562     
    480500   313.65854      569.98641     -2288.5388     -1883.231     
    481000   296.73666      1009.8772     -2321.8484     -1939.0406    
    481500   314.13883      308.18371     -2338.4169     -1933.2252    
    482000   303.86242      1239.8979     -2310.4127     -1918.7187    
    482500   287.58581      2067.3176     -2273.8232     -1903.7548    
    483000   308.52408      2355.7679     -2348.3161     -1949.932     
    483500   295.72257      569.10539     -2315.9255     -1933.9115    
    484000   325.65881      979.12019     -2313.8686     -1893.5906    
    484500   296.59217      96.368403     -2322.5917     -1941.1838    
    485000   283.12226      2076.6471     -2317.3602     -1952.6001    
    485500   312.05201     -14.831395     -2340.5724     -1937.3334    
    486000   297.58312      1989.6648     -2288.1511     -1903.6218    
    486500   290.57297      2003.8766     -2268.3361     -1894.772     
    487000   297.46093      650.33606     -2321.3318     -1938.3835    
    487500   308.67786      1059.1344     -2342.4287     -1944.9041    
    488000   294.82351      1035.3337     -2316.0508     -1935.4309    
    488500   308.18926      117.5673      -2296.2491     -1898.3419    
    489000   323.96203      1817.0886     -2265.9809     -1848.3779    
    489500   296.90617      1405.1188     -2285.9293     -1902.3755    
    490000   288.21714      1224.5768     -2317.7479     -1945.3233    
    490500   298.99752      462.25787     -2333.5038     -1947.076     
    491000   288.43863      860.78513     -2339.8253     -1967.3317    
    491500   311.62874      609.40691     -2314.376      -1913.511     
    492000   312.70222      818.00408     -2307.473      -1904.2917    
    492500   295.58874      716.97769     -2311.3997     -1931.3818    
    493000   299.57062      485.62468     -2355.1819     -1969.0684    
    493500   298.95618      2268.454      -2307.9003     -1922.5779    
    494000   307.59918      455.35986     -2309.9687     -1914.4219    
    494500   295.35019     -46.377012     -2303.0137     -1922.3403    
    495000   292.17551     -284.77557     -2297.8767     -1921.4324    
    495500   309.09176      99.269409     -2298.6565     -1901.1082    
    496000   282.47661      263.52146     -2296.5033     -1932.3173    
    496500   291.88185      1047.2271     -2321.1249     -1945.6451    
    497000   308.62559      673.2982      -2300.8846     -1903.0614    
    497500   312.73145      895.27486     -2335.7875     -1932.9743    
    498000   290.1774       2338.6303     -2329.3873     -1955.2429    
    498500   298.07884      1048.3134     -2307.0322     -1921.9598    
    499000   300.66529      1060.7151     -2315.2625     -1927.0839    
    499500   295.9617       1183.129      -2304.191      -1922.4662    
    500000   294.83649     -572.45513     -2350.808      -1970.2612    
    500500   303.91681      2512.086      -2316.7        -1924.7226    
    501000   299.06523      2509.8076     -2301.3835     -1915.5367    
    501500   286.95859     -262.76681     -2323.6927     -1953.2768    
    502000   301.8985       74.069058     -2306.0432     -1916.1766    
    502500   310.9687       2228.1845     -2294.9603     -1893.483     
    503000   298.64694      451.99624     -2333.3561     -1947.7113    
    503500   295.33839      1212.5949     -2312.312      -1931.4003    
    504000   284.74036      1871.3504     -2281.8577     -1914.39      
    504500   294.72818      1177.7492     -2348.7496     -1968.1413    
    505000   312.08092      265.15074     -2330.9101     -1928.1035    
    505500   304.51304      2293.762      -2320.4944     -1927.2783    
    506000   289.32798     -56.046951     -2339.3647     -1965.6354    
    506500   282.58388      1535.3466     -2280.3017     -1915.3412    
    507000   301.47892      1499.3342     -2297.3254     -1908.1787    
    507500   277.16653      1484.7084     -2306.317      -1948.4209    
    508000   301.24754      637.7595      -2327.5118     -1938.589     
    508500   317.64539      16.597571     -2309.7302     -1899.7933    
    509000   289.61755     -653.59255     -2307.968      -1934.3213    
    509500   299.39472      2760.6578     -2332.393      -1945.7729    
    510000   327.51394      545.85904     -2311.7446     -1889.1203    
    510500   308.06277     -37.420454     -2328.7331     -1930.9713    
    511000   286.51664      1202.5441     -2310.7211     -1940.777     
    511500   293.95871      1188.1015     -2298.6353     -1919.2514    
    512000   288.55825      439.42244     -2350.7207     -1978.4041    
    512500   302.05166      2048.0682     -2337.4881     -1947.6876    
    513000   310.32274      1186.2096     -2341.2        -1940.7531    
    513500   293.35096      2400.5481     -2317.2469     -1938.5801    
    514000   299.63719      1854.3247     -2275.6572     -1888.6303    
    514500   301.6702      -371.44993     -2335.6553     -1946.1915    
    515000   296.55762      1967.9126     -2323.487      -1940.6599    
    515500   304.73666      471.15355     -2283.0806     -1889.5514    
    516000   298.46075      24.846888     -2282.6424     -1897.3429    
    516500   285.31232      184.42225     -2320.4237     -1952.1161    
    517000   301.01821      445.25807     -2317.2692     -1928.8903    
    517500   297.36498      633.64006     -2297.4694     -1913.4531    
    518000   302.19024      310.23903     -2358.2468     -1968.4859    
    518500   308.20388      437.1171      -2328.7359     -1930.998     
    519000   310.27732      1292.8407     -2304.7949     -1904.195     
    519500   307.38435      688.14416     -2307.2376     -1910.328     
    520000   296.64671      356.28376     -2307.3255     -1923.993     
    520500   311.84948      192.12509     -2292.3706     -1889.7062    
[...]
   2376000   288.00043      1178.002      -2345.1043     -1973.5275    
   2376500   297.87742     -905.87575     -2347.5026     -1963.1746    
   2377000   305.0348       584.80033     -2319.8544     -1926.0691    
   2377500   306.07666      268.00974     -2304.6943     -1909.5328    
   2378000   300.82827      165.10562     -2302.2757     -1913.8311    
   2378500   299.8955       244.58001     -2343.4217     -1956.5387    
   2379000   303.44         510.90837     -2297.6807     -1906.2196    
   2379500   304.83156      681.04489     -2306.0853     -1912.587     
   2380000   295.54349      1350.8211     -2328.5697     -1947.0025    
   2380500   277.96494      528.97607     -2356.2883     -1997.294     
   2381000   305.13725      1004.5335     -2345.5333     -1951.574     
   2381500   288.66799      1987.7109     -2289.1786     -1916.3524    
   2382000   299.85081      1526.0438     -2272.8204     -1885.6776    
   2382500   293.07893      569.41378     -2307.3545     -1928.9477    
   2383000   290.27896      1251.2318     -2320.6541     -1945.8251    
   2383500   324.55169      571.74425     -2316.2106     -1897.1827    
   2384000   306.46217      888.33446     -2279.2897     -1883.496     
   2384500   283.85381      2816.0607     -2308.2879     -1941.6257    
   2385000   296.93987      1327.1745     -2296.2105     -1912.696     
   2385500   309.27845      490.55219     -2254.2657     -1854.7861    
   2386000   291.17436     -0.37370568    -2285.0694     -1908.9852    
   2386500   291.24498      1535.9572     -2274.9171     -1898.8682    
   2387000   310.13108      810.82925     -2333.3219     -1932.7228    
   2387500   293.04766     -160.35809     -2345.5641     -1967.1915    
   2388000   295.02229      1071.8201     -2305.0277     -1924.0921    
   2388500   298.30945      1323.462      -2280.1899     -1894.9929    
   2389000   310.30006      2248.0369     -2279.9059     -1879.172     
   2389500   296.5661       627.31202     -2317.6815     -1934.7301    
   2390000   305.50438      13.568129     -2324.7648     -1930.3386    
   2390500   321.07828      1903.0866     -2309.8227     -1895.532     
   2391000   292.36041      2740.5693     -2325.6443     -1948.423     
   2391500   292.52008      295.76621     -2325.5702     -1948.2321    
   2392000   325.20458      900.05034     -2307.6918     -1887.8218    
   2392500   316.74746      1615.1816     -2316.4949     -1907.601     
   2393000   267.09021      1617.2606     -2276.1105     -1931.2058    
   2393500   303.76264      380.57463     -2285.597      -1893.3328    
   2394000   305.97981      1093.2069     -2283.0939     -1887.9792    
   2394500   287.95357      256.22998     -2294.4938     -1922.6177    
   2395000   311.80902      959.56406     -2312.1821     -1909.5452    
   2395500   292.76914      1074.0348     -2339.0383     -1961.007     
   2396000   299.13856      638.82528     -2332.89       -1946.6141    
   2396500   323.00552      1121.1704     -2320.7384     -1903.707     
   2397000   291.69202      1409.714      -2317.7702     -1941.2165    
   2397500   307.844        74.258437     -2324.7989     -1927.6626    
   2398000   311.15406     -12.814424     -2312.1314     -1910.3426    
   2398500   279.39725      643.29785     -2312.027      -1951.1823    
   2399000   303.68417      507.93834     -2311.6642     -1919.7225    
   2399500   301.26861      857.56509     -2323.7226     -1935.0338    
   2400000   284.55165      905.06075     -2361.1379     -1994.021     
   2400500   294.87134     -192.91024     -2335.3372     -1954.6056    
   2401000   288.1667       1834.4296     -2292.5541     -1920.4549    
   2401500   310.1003       967.68795     -2279.418      -1878.9169    
   2402000   308.90859     -201.68034     -2307.0854     -1908.1622    
   2402500   277.06883      677.66059     -2291.6234     -1933.8048    
   2403000   304.78465      551.65958     -2288.36       -1894.8209    
   2403500   307.71039      1170.2927     -2319.6682     -1922.3637    
   2404000   284.86929     -826.84808     -2320.6081     -1952.7065    
   2404500   297.6951       1009.1709     -2290.9064     -1906.4579    
   2405000   303.65928     -815.17446     -2336.78       -1944.7331    
   2405500   303.848        2903.6648     -2344.8768     -1952.5638    
   2406000   314.111        1753.6571     -2323.5428     -1918.2768    
   2406500   303.70696     -109.08464     -2361.8755     -1969.8276    
   2407000   284.4997      -128.71073     -2325.8311     -1958.5081    
   2407500   298.44985      2478.9708     -2317.7969     -1932.3332    
   2408000   311.15891      1690.7209     -2293.0403     -1891.1903    
   2408500   309.84262      930.34325     -2308.6946     -1908.5666    
   2409000   302.35902     -608.57242     -2335.3747     -1944.879     
   2409500   296.63702      931.37979     -2286.2189     -1903.1165    
   2410000   318.46621      1511.7386     -2318.3456     -1907.0162    
   2410500   290.63327      1193.5383     -2321.1604     -1945.7761    
   2411000   307.28168      1052.8584     -2297.8322     -1901.0333    
   2411500   309.61227      44.93954      -2315.6205     -1915.752     
   2412000   300.29553      398.14542     -2307.2231     -1919.4851    
   2412500   283.74197      282.04587     -2314.2124     -1947.7579    
   2413000   296.3063       1352.5659     -2323.9204     -1941.2718    
   2413500   299.87495      167.06509     -2298.0464     -1910.7563    
   2414000   271.32177      1376.2723     -2285.8899     -1935.4291    
   2414500   312.33706      1517.6341     -2310.1549     -1906.8009    
   2415000   321.75776      295.32417     -2325.3255     -1909.823     
   2415500   295.13609      1756.232      -2325.0339     -1944.0525    
   2416000   307.23683      2014.2215     -2307.4623     -1910.6565    
   2416500   311.40178      1885.1013     -2328.1769     -1925.9785    
   2417000   296.49409      144.90905     -2333.0421     -1950.1169    
   2417500   290.95509      1800.0189     -2310.0954     -1934.3642    
   2418000   324.02829      488.0301      -2271.9811     -1853.4858    
   2418500   303.82533      946.56257     -2293.6467     -1901.2235    
   2419000   287.72694      1815.8744     -2309.2247     -1937.7499    
   2419500   297.58703      1159.8128     -2325.5832     -1941.3933    
   2420000   315.53753      1801.4733     -2294.7736     -1887.4504    
   2420500   309.71567     -29.070615     -2338.8602     -1938.8756    
   2421000   292.54128     -362.98742     -2322.9607     -1945.372     
   2421500   304.7644       1249.2878     -2288.9527     -1895.3578    
   2422000   287.70831      225.33917     -2329.434      -1957.9246    
   2422500   280.63915      774.75944     -2306.1626     -1943.9642    
   2423000   293.31592      410.84598     -2280.5048     -1901.9907    
   2423500   288.93007     -998.88849     -2303.3602     -1930.2581    
   2424000   280.27909      1934.9453     -2333.8317     -1971.8332    
   2424500   298.63144     -87.35609      -2316.4368     -1930.7598    
   2425000   301.36754      892.56888     -2289.8171     -1900.7259    
   2425500   305.70548      1829.1801     -2339.9104     -1945.5489    
   2426000   290.3538       1428.8026     -2327.2314     -1952.3456    
   2426500   303.98301      1302.0659     -2303.7841     -1911.2351    
   2427000   295.70044      2010.5679     -2312.4598     -1930.6916    
   2427500   281.24656      729.21622     -2349.6408     -1986.5835    
   2428000   282.24861     -165.78479     -2299.7651     -1935.2663    
   2428500   299.68415      1400.2506     -2316.1628     -1929.1588    
   2429000   284.55162      1426.8958     -2344.8332     -1977.7225    
   2429500   290.22379      1542.3443     -2314.5569     -1939.9174    
   2430000   319.63191      2661.8871     -2334.7856     -1922.1417    
   2430500   288.36337      1159.4342     -2332.4391     -1960.1238    
   2431000   280.80331      245.51118     -2322.5145     -1960.024     
   2431500   303.05768     -215.16221     -2301.4841     -1910.5251    
   2432000   294.33269      1592.1828     -2284.9372     -1905.0356    
   2432500   281.94552      690.29917     -2317.4647     -1953.3741    
   2433000   307.15553      929.97997     -2300.578      -1904.0556    
   2433500   311.42674      1623.8969     -2305.5624     -1903.5462    
   2434000   300.82421      717.63902     -2341.3884     -1952.9975    
   2434500   303.7011       1499.4473     -2329.6534     -1937.3964    
   2435000   315.62873      1301.0462     -2303.9123     -1896.2927    
   2435500   317.14016      935.97984     -2277.1027     -1867.4547    
   2436000   309.04854      839.9611      -2318.3592     -1919.2731    
   2436500   294.04728      598.38438     -2309.2369     -1929.541     
   2437000   301.0258       1581.9157     -2314.8679     -1926.1143    
   2437500   310.65212     -83.494625     -2308.1399     -1907.0171    
   2438000   294.09841      1237.468      -2339.0841     -1959.3397    
   2438500   299.19416      329.35455     -2314.2101     -1927.8967    
   2439000   311.24871      434.19323     -2312.9333     -1910.939     
   2439500   286.59077     -144.74786     -2319.8649     -1949.7724    
   2440000   295.39207      446.57654     -2342.2265     -1960.8553    
   2440500   282.84385      1339.0746     -2294.1975     -1928.9956    
   2441000   290.08465     -308.28075     -2310.0066     -1935.4453    
   2441500   315.85569      1123.2467     -2307.2558     -1899.3116    
   2442000   296.47196     -186.00703     -2318.29       -1935.3561    
   2442500   293.64466     -180.43894     -2310.0469     -1930.844     
   2443000   317.99341      855.5735      -2308.1136     -1897.4447    
   2443500   303.61356      1925.0711     -2324.8788     -1932.859     
   2444000   296.14333      1135.2685     -2334.5041     -1952.0383    
   2444500   311.71355      1168.2105     -2299.4885     -1896.9407    
   2445000   299.08245      1403.4077     -2261.7602     -1875.4979    
   2445500   313.78647      680.47565     -2318.9425     -1913.7727    
   2446000   283.44606      950.30953     -2312.0498     -1945.9809    
   2446500   309.37534      1297.6693     -2299.1043     -1899.6374    
   2447000   309.05656      1229.1773     -2298.7911     -1899.655     
   2447500   295.15749      865.03832     -2329.0609     -1947.8737    
   2448000   287.39036      353.71759     -2306.4301     -1935.1717    
   2448500   279.06864      1176.2928     -2289.6963     -1929.2314    
   2449000   291.79155      1160.9947     -2301.8729     -1925.112     
   2449500   318.14634      1364.64       -2294.0393     -1883.2414    
   2450000   295.60233      2317.4915     -2313.3945     -1931.6223    
   2450500   282.70986      1641.4539     -2314.2349     -1949.151     
   2451000   288.5859       2459.4517     -2292.5087     -1919.8195    
   2451500   307.27299      1630.2453     -2288.4259     -1891.6625    
   2452000   305.76815      339.10163     -2331.9437     -1937.0363    
   2452500   290.97945      2655.3242     -2296.3949     -1920.5       
   2453000   303.7694      -20.149093     -2261.0896     -1868.7423    
   2453500   316.31416      944.80248     -2317.7562     -1909.2881    
   2454000   301.97756      1878.1873     -2330.7367     -1940.8095    
   2454500   291.02111      106.99922     -2310.7173     -1934.9066    
   2455000   304.22031      1713.3799     -2296.0054     -1903.2026    
   2455500   305.39218      310.3809      -2344.6629     -1950.3862    
   2456000   289.52031      2741.2662     -2307.624      -1933.8722    
   2456500   313.95713      2556.5223     -2311.3916     -1906.05      
   2457000   308.15094     -19.222564     -2326.7003     -1928.7562    
   2457500   293.43387      370.49998     -2343.5523     -1964.5731    
   2458000   310.45004      577.226       -2324.903      -1924.0826    
   2458500   308.86107      884.96679     -2317.9176     -1918.9408    
   2459000   268.47274      177.02933     -2312.0878     -1965.2993    
   2459500   320.48939      1637.7821     -2333.8585     -1920.0085    
   2460000   307.20826      1209.6744     -2320.9353     -1924.1221    
   2460500   271.19731      356.27574     -2310.4083     -1960.053     
   2461000   290.03697      1459.7956     -2302.1715     -1927.5643    
   2461500   299.79772      1834.9059     -2320.9729     -1933.7005    
   2462000   317.47332      2044.9372     -2316.5564     -1906.4863    
   2462500   296.11563      460.46031     -2304.5689     -1922.1432    
   2463000   308.08153      1740.6162     -2343.9141     -1945.9972    
   2463500   307.35417      399.91648     -2305.0969     -1908.1552    
   2464000   293.82725      1297.3794     -2288.7663     -1909.2453    
   2464500   311.70508     -377.30117     -2321.6611     -1919.1955    
   2465000   276.57764      313.75492     -2306.1892     -1949.0469    
   2465500   303.2298       786.47864     -2289.9751     -1898.7348    
   2466000   309.05529      1958.5028     -2311.9672     -1912.8289    
   2466500   275.94359      1163.9467     -2316.2809     -1960.3169    
   2467000   302.53309      477.38781     -2318.0244     -1927.7944    
   2467500   331.06868      371.38153     -2320.0483     -1893.2847    
   2468000   291.03463      701.36115     -2314.4191     -1939.3944    
   2468500   306.98688      993.10791     -2346.4943     -1950.5434    
   2469000   282.34869     -54.429787     -2299.5665     -1935.0554    
   2469500   292.8685       1452.2706     -2311.7127     -1933.4436    
   2470000   292.57961      933.47147     -2317.6394     -1939.8157    
   2470500   306.29374      1531.3033     -2315.132      -1919.6484    
   2471000   302.23462      889.78059     -2268.473      -1878.598     
   2471500   291.97234      1466.0922     -2283.002      -1905.8278    
   2472000   288.33223     -490.38293     -2306.9413     -1934.5192    
   2472500   294.12055      223.43119     -2369.4583     -1989.8949    
   2473000   318.23708      185.03101     -2356.8947     -1946.1522    
   2473500   305.59881      1237.9865     -2315.8851     -1921.612     
   2474000   303.48538      266.65533     -2310.053      -1918.3122    
   2474500   286.21904      822.65282     -2327.7568     -1958.2701    
   2475000   300.27151      138.79181     -2295.985      -1908.171     
   2475500   306.17707      1578.8259     -2324.1414     -1928.7916    
   2476000   291.09649      1099.6467     -2358.6163     -1982.1757    
   2476500   302.9114       2330.8645     -2364.6068     -1973.3922    
   2477000   317.4427       1516.3341     -2340.8695     -1930.9478    
   2477500   308.23134      1311.2802     -2298.9681     -1900.9757    
   2478000   276.47302      2626.3855     -2297.1184     -1940.1173    
   2478500   310.85253     -143.85675     -2363.2563     -1961.8315    
   2479000   297.95466      666.90787     -2290.4946     -1905.6683    
   2479500   296.94465      2217.9851     -2309.0917     -1925.6592    
   2480000   304.50753      574.29732     -2350.5117     -1957.5032    
   2480500   295.01683      671.54377     -2314.7542     -1933.7427    
   2481000   315.66984      728.30488     -2307.3558     -1899.6647    
   2481500   294.24832      1878.9931     -2342.6079     -1962.5792    
   2482000   286.58271     -52.033706     -2305.6243     -1935.485     
   2482500   310.56562     -424.48314     -2314.0696     -1912.98      
   2483000   319.9109       1446.4994     -2346.5307     -1933.3746    
   2483500   286.9555      -74.728988     -2339.6815     -1969.1731    
   2484000   303.22998      1495.3222     -2314.4581     -1922.8557    
   2484500   303.49832      646.61392     -2316.5658     -1924.6702    
   2485000   300.42077      1160.8051     -2366.4926     -1978.5179    
   2485500   289.60716      2313.4767     -2333.4198     -1959.332     
   2486000   304.00516      704.55655     -2326.3033     -1933.7858    
   2486500   313.93606      1654.6195     -2283.9066     -1878.3955    
   2487000   300.2043       1078.3951     -2292.7976     -1905.0632    
   2487500   305.91376      896.33566     -2314.405      -1919.2696    
   2488000   294.06324      1017.7918     -2315.586      -1935.7223    
   2488500   305.36607      584.34485     -2337.7087     -1943.2948    
   2489000   290.26078      651.75827     -2265.4956     -1890.6336    
   2489500   299.34114      455.6276      -2309.7363     -1923.2646    
   2490000   309.37834     -428.71885     -2341.3632     -1942.0597    
   2490500   303.67141      1644.7314     -2297.9845     -1905.8978    
   2491000   304.60062      287.42583     -2297.0785     -1903.8342    
   2491500   278.38272     -555.85906     -2305.9798     -1946.668     
   2492000   314.2724      -50.219466     -2310.883      -1905.0381    
   2492500   318.65666      298.7882      -2270.8279     -1859.276     
   2493000   327.49176      778.05699     -2332.0501     -1909.1835    
   2493500   286.36275      110.28061     -2301.8596     -1932.0163    
   2494000   277.71235      852.98194     -2322.0185     -1963.2887    
   2494500   295.47893      688.18563     -2325.0548     -1943.44      
   2495000   292.77636      764.70555     -2292.2235     -1913.9763    
   2495500   295.82858      148.43194     -2296.1131     -1914.0553    
   2496000   301.39921      736.28439     -2318.0076     -1928.8214    
   2496500   280.43027      517.57279     -2312.9648     -1950.7715    
   2497000   297.33089      2099.1343     -2301.242      -1917.159     
   2497500   307.91457      463.73024     -2305.9669     -1908.2729    
   2498000   289.37386      710.06608     -2338.351      -1964.6863    
   2498500   301.99362      1034.1977     -2322.5376     -1932.539     
   2499000   306.14752      828.16755     -2316.8028     -1921.4838    
   2499500   304.70368      1154.7129     -2320.7331     -1927.2076    
   2500000   301.82923      1695.6162     -2317.4458     -1927.6858    
Loop time of 4065.1 on 16 procs for 2500000 steps with 650 atoms

Performance: 106.271 ns/day, 0.226 hours/ns, 614.992 timesteps/s
89.4% CPU use with 16 MPI tasks x no OpenMP threads

MPI task timing breakdown:
Section |  min time  |  avg time  |  max time  |%varavg| %total
---------------------------------------------------------------
Pair    | 1042.8     | 1168.3     | 1315.3     | 231.2 | 28.74
Bond    | 1.2713     | 1.3996     | 1.5316     |   6.2 |  0.03
Kspace  | 1103.6     | 1247.5     | 1373.4     | 222.1 | 30.69
Neigh   | 118.99     | 119.71     | 120.38     |   4.9 |  2.94
Comm    | 629.13     | 631.93     | 633.93     |   5.3 | 15.55
Output  | 2.5863     | 2.5981     | 2.655      |   1.0 |  0.06
Modify  | 840.68     | 844.05     | 847.34     |   7.9 | 20.76
Other   |            | 49.67      |            |       |  1.22

Nlocal:         40.625 ave          48 max          31 min
Histogram: 1 0 1 1 4 2 2 3 0 2
Nghost:        3258.69 ave        3297 max        3194 min
Histogram: 1 0 2 1 1 1 2 3 2 3
Neighs:        15439.9 ave       19230 max       12287 min
Histogram: 3 0 1 0 5 3 3 0 0 1

Total # of neighbors = 247039
Ave neighs/atom = 380.06
Ave special neighs/atom = 1.9938462
Neighbor list builds = 198642
Dangerous builds = 22095

write_data  end.data                                   # write a lammps.data file with the final configuration, can be used to start new simulations
System init for write_data ...
PPPM initialization ...
  using 12-bit tables for long-range coulomb (../kspace.cpp:342)
  G vector (1/distance) = 0.30520329
  grid = 16 16 16
  stencil order = 5
  estimated absolute RMS force accuracy = 0.0030333252
  estimated relative force accuracy = 9.1347686e-06
  using double precision KISS FFT
  3d grid and FFT values/proc = 2475 256
Generated 5 of 6 mixed pair_coeff terms from arithmetic mixing rule
WARNING: Not all mixed pair coeffs generated from mixing. Use write_data with 'pair ij' option to store all pair coeffs. (../write_data.cpp:309)
Total wall time: 1:07:45
