LAMMPS (23 Jun 2022)
#LAMMPS init file for NaCl dissociation in water
# ------------------------------- Initialization Section --------------------
units        real                            # A, fs, Kcal/mol
atom_style   full                            # Accepts positions, masses, bonds, angles, charges
pair_style lj/charmm/coul/long 9.0 10.0      # Classical LJ style potential + coulomb interaction with two cutoffs
bond_style  harmonic                         # Uses an harmonic potential around an equilibrium value for bonds
angle_style harmonic                         # Uses an harmonic potential around an equilibrium value for angles

# ------------------------------- Atom Definition Section -------------------
read_data    "../NaCl_216wat.data"           # Read from file the positions, masses, velocities, bonds and charges of the atoms
Reading data file ...
  orthogonal box = (0.12622049 0.12622049 0.12622049) to (18.47378 18.47378 18.47378)
  2 by 2 by 4 MPI processor grid
  reading atoms ...
  650 atoms
  reading velocities ...
  650 velocities
  scanning bonds ...
  2 = max bonds/atom
  scanning angles ...
  1 = max angles/atom
  reading bonds ...
  432 bonds
  reading angles ...
  216 angles
Finding 1-2 1-3 1-4 neighbors ...
  special bond factors lj:    0        0        0       
  special bond factors coul:  0        0        0       
     2 = max # of 1-2 neighbors
     1 = max # of 1-3 neighbors
     1 = max # of 1-4 neighbors
     2 = max # of special neighbors
  special bonds CPU = 0.001 seconds
  read_data CPU = 0.025 seconds

group wat type  1  2                         # Define a group for the water molecules (types 1=O, 2=H)
648 atoms in group wat

# ------------------------------- Settings Section --------------------------

### TIP3P Potential Parameters --> Water ###
set type 1 charge -0.834                     # Set charge for O
Setting atom values ...
  216 settings made for charge
set type 2 charge  0.417                     # Set charge for H
Setting atom values ...
  432 settings made for charge
pair_coeff 1 1 0.1521 3.1507                 # Set O interaction parameters
pair_coeff 2 2 0.0460 0.4000                 # Set H interaction parameters
pair_coeff 1 2 0.0836 1.7753                 # Set O-H interaction parameters
bond_coeff  1 450 0.9572                     # Set O-H bond parameters
angle_coeff 1 55 104.52                      # Set H-O-H angle parameters
kspace_style pppm 1.0e-5                     # final npt relaxation
pair_coeff 3 3  0.3526418 2.1595384928       # Set Na interaction parameters
pair_coeff 4 4   0.0127850  4.8304528498     # Set Cl interaction parameter

# ------------------------------- Run Section -------------------------------

# The dump command is used to print output, here: atom-id, molecule-id, lammps-type, xyz coord, image-xyz (for PBC box)
dump         1 all custom 500 traj_unbiased.lammpstrj id mol type x y z ix iy iz

timestep     2.0                                       # fs

# The fix command is used to act on your system
fix          fxnvt all nvt temp 300.0 300.0 500.0      # 300K Nose-Hoover thermostat to sample the NVT canonical ensemble, tau = 500*dt
fix pl all plumed plumedfile plumed.dat outfile p.log  # Make LAMMPS aware that we want to use PLUMED! Load the plumed.dat input file
fix fRattleWat wat rattle 0.0001 10 0 b 1 a 1        # Fix bonds and angles of water molecules, allow to use longer dt and it's fine for us
       0 = # of size 2 clusters
       0 = # of size 3 clusters
       0 = # of size 4 clusters
     216 = # of frozen angles
  find clusters CPU = 0.000 seconds

# The thermo command computes the thermodynamic quantities we may be interested in, can specify which ones with thermo_style
thermo         500                                       # compute and print on screen every 500dt
thermo_style   custom step temp press epair etotal

run            2500000                                    # run the simualtion for N steps
PPPM initialization ...
  using 12-bit tables for long-range coulomb (../kspace.cpp:342)
  G vector (1/distance) = 0.30520329
  grid = 16 16 16
  stencil order = 5
  estimated absolute RMS force accuracy = 0.0030333252
  estimated relative force accuracy = 9.1347686e-06
  using double precision KISS FFT
  3d grid and FFT values/proc = 2475 256
Generated 5 of 6 mixed pair_coeff terms from arithmetic mixing rule
Neighbor list info ...
  update every 1 steps, delay 10 steps, check yes
  max neighbors/atom: 2000, page size: 100000
  master list distance cutoff = 12
  ghost atom cutoff = 12
  binsize = 6, bins = 4 4 4
  1 neighbor lists, perpetual/occasional/extra = 1 0 0
  (1) pair lj/charmm/coul/long, perpetual
      attributes: half, newton on
      pair build: half/bin/newton
      stencil: half/bin/3d
      bin: standard
Per MPI rank memory allocation (min/avg/max) = 9.608 | 9.611 | 9.613 Mbytes
   Step          Temp          Press          E_pair         TotEng    
         0   306.42593      3122.9113     -2545.2648     -2149.7637    
       500   307.57755      1507.9252     -2331.4431     -1934.4556    
      1000   284.12842      2121.0159     -2319.7742     -1953.0523    
      1500   297.9082       1291.6881     -2327.6611     -1943.1538    
      2000   296.1198       757.73477     -2272.768      -1890.569     
      2500   318.30799      2138.5105     -2323.5547     -1912.7175    
      3000   304.66219      136.80317     -2331.6925     -1938.4678    
      3500   320.89066      618.42344     -2329.8112     -1915.6406    
      4000   319.47233      1280.0152     -2299.8469     -1887.5069    
      4500   318.06991     -1105.188      -2319.7048     -1909.1749    
      5000   286.61524      1448.9164     -2301.4799     -1931.5483    
      5500   336.0964       1036.1456     -2314.5115     -1880.715     
      6000   308.9071       799.88642     -2327.1939     -1928.4904    
      6500   297.55337      546.16465     -2338.9239     -1954.8745    
      7000   301.40026      362.07705     -2295.3342     -1906.3197    
      7500   319.49631      1594.154      -2311.2337     -1898.8627    
      8000   286.80227      192.3782      -2300.7557     -1930.5827    
      8500   289.63636      1893.8016     -2309.0273     -1935.1963    
      9000   291.0191       1755.2111     -2290.1427     -1914.527     
      9500   324.32534      843.16266     -2271.2338     -1852.63      
     10000   308.89895      354.92284     -2309.4804     -1910.7874    
     10500   299.48556      1592.068      -2320.9377     -1934.3945    
     11000   279.11676      874.14172     -2334.6137     -1974.3603    
     11500   304.17879      1362.0845     -2301.7113     -1909.1106    
     12000   297.29497      1199.4784     -2295.8676     -1912.1517    
     12500   301.32996      1685.3518     -2355.8237     -1966.8999    
     13000   299.12089      350.80853     -2335.3466     -1949.2741    
     13500   295.22741      665.88184     -2313.1383     -1932.091     
     14000   328.38164      3053.5732     -2305.4621     -1881.623     
     14500   308.9388       1577.7859     -2314.292      -1915.5475    
     15000   291.45241      905.2681      -2321.7286     -1945.5537    
     15500   324.08032      1470.2106     -2310.9927     -1892.7053    
     16000   313.44918      759.96641     -2306.4099     -1901.8439    
     16500   313.12443      2484.2184     -2327.5707     -1923.4239    
     17000   289.86759      2385.8113     -2310.5987     -1936.4693    
     17500   300.95739      432.90656     -2328.8677     -1940.4248    
     18000   322.36262      143.697       -2306.6593     -1890.5888    
     18500   292.5828       2006.9582     -2316.1951     -1938.5612    
     19000   295.53327      1110.207      -2325.1787     -1943.7367    
     19500   279.37621      2840.3979     -2284.21       -1923.6218    
     20000   313.8023       2223.3617     -2301.1379     -1896.1162    
     20500   296.69271      1401.3655     -2314.4096     -1931.4711    
     21000   299.68461      1617.0324     -2329.7499     -1942.9498    
     21500   302.8942       1391.3351     -2308.7008     -1917.7581    
     22000   315.04949     -18.001827     -2307.7818     -1901.1504    
     22500   283.80302      183.51925     -2311.3403     -1945.0384    
     23000   304.33325      1448.7823     -2328.1704     -1935.3703    
     23500   324.85302      2173.2451     -2322.7024     -1903.4176    
     24000   295.00441      38.413029     -2303.4005     -1922.641     
     24500   291.83256      39.331832     -2321.6439     -1944.9784    
     25000   297.49386      566.83453     -2341.4064     -1957.4339    
     25500   288.62829      475.50282     -2275.6977     -1903.1679    
     26000   293.50925      504.70495     -2304.7626     -1925.9329    
     26500   295.94175      793.48626     -2327.1352     -1945.1659    
     27000   309.41583     -609.91538     -2313.2334     -1913.8733    
     27500   301.77761      1169.4232     -2353.6844     -1964.1829    
     28000   303.10676      990.54346     -2330.3874     -1939.1703    
     28500   300.39629     -86.998858     -2298.3843     -1910.6656    
     29000   280.19236     -1059.6653     -2323.6127     -1961.971     
     29500   299.84567      1165.3479     -2318.7919     -1931.7838    
     30000   313.28656      209.76901     -2322.1454     -1917.7893    
     30500   287.65013      911.00152     -2330.5293     -1959.2619    
     31000   303.76007     -650.82708     -2309.2136     -1917.1533    
     31500   305.7062       2034.8594     -2301.5181     -1906.9459    
     32000   292.14118      1808.6905     -2323.859      -1946.795     
     32500   287.05665      1372.8298     -2316.2673     -1945.766     
     33000   319.40147      902.38895     -2312.583      -1900.3345    
     33500   290.20301      1689.7683     -2308.0018     -1933.4395    
     34000   301.70473      517.82004     -2335.5382     -1946.1307    
     34500   303.85898      430.04416     -2301.9994     -1909.8114    
     35000   291.81042     -154.99314     -2333.4548     -1956.8178    
     35500   306.36565     -5.9158458     -2339.4912     -1944.0679    
     36000   296.03784      523.55055     -2308.7792     -1926.6859    
     36500   327.95782      1678.2015     -2291.376      -1868.0839    
     37000   313.59259      1705.2178     -2312.1365     -1907.3854    
     37500   312.1408       486.47961     -2327.9004     -1925.0232    
     38000   293.18402      164.593       -2351.4212     -1973.0113    
     38500   303.5777       33.391113     -2351.5868     -1959.7618    
     39000   296.10996      517.5041      -2307.8351     -1925.6487    
     39500   301.75293      1810.3256     -2304.8207     -1915.351     
     40000   272.81538     -495.49016     -2321.0118     -1968.8915    
     40500   305.31419      1440.2583     -2326.221      -1932.1548    
     41000   287.58555      1819.4156     -2291.487      -1920.303     
     41500   294.83223     -1078.6396     -2334.8533     -1954.3161    
     42000   293.93773      1688.4568     -2317.8442     -1938.4615    
     42500   303.538        992.09309     -2304.5741     -1912.8004    
     43000   305.40763     -129.94953     -2338.6901     -1944.5032    
     43500   285.28177      137.74917     -2337.5696     -1969.359     
     44000   295.39318      2123.8932     -2319.1013     -1937.8401    
     44500   320.3933       1617.3677     -2284.6737     -1871.145     
     45000   301.71193      2815.9309     -2285.3024     -1895.8856    
     45500   293.53811      1482.8202     -2311.3665     -1932.4996    
     46000   285.85267      738.51439     -2301.5544     -1932.607     
     46500   295.48346      2195.2288     -2309.4823     -1928.1045    
     47000   299.68546      1299.7191     -2287.0169     -1900.2157    
     47500   314.20344      435.54007     -2303.3947     -1897.8552    
     48000   280.82234      154.29018     -2312.9298     -1950.475     
     48500   291.95258      202.52409     -2292.1703     -1915.3498    
     49000   307.12561      604.02137     -2294.8617     -1898.4575    
     49500   304.55034      642.95419     -2332.835      -1939.7547    
     50000   299.80224      97.855503     -2340.5437     -1953.5918    
     50500   311.31907      773.76943     -2319.0038     -1917.1871    
     51000   296.13098     -494.78777     -2282.2412     -1900.0276    
     51500   309.9386       1735.9458     -2299.5042     -1899.4693    
     52000   303.20119     -2.8308302     -2334.6499     -1943.311     
     52500   315.68943     -504.22574     -2327.8965     -1920.439     
     53000   326.79413      2106.4514     -2294.7348     -1872.9447    
     53500   298.54449      441.24214     -2320.2009     -1934.8723    
     54000   296.9087       1946.8473     -2310.811      -1927.5937    
     54500   314.81584      306.59524     -2295.3558     -1889.0259    
     55000   287.06117      193.35124     -2277.1426     -1906.6354    
     55500   292.12641      770.9102      -2320.1677     -1943.1229    
     56000   302.91955      271.42352     -2355.6032     -1964.6278    
     56500   324.61643      1292.772      -2329.4001     -1910.4207    
     57000   299.27012     -380.18786     -2327.4877     -1941.2225    
     57500   288.65116      227.78708     -2299.069      -1926.5096    
     58000   287.74047      1568.4752     -2271.2022     -1899.8182    
     58500   305.94045      1483.9808     -2322.667      -1927.7925    
     59000   291.33789      1579.9252     -2355.89       -1979.8629    
     59500   286.6884       1901.4497     -2322.2336     -1952.2076    
     60000   317.16052      1249.618      -2337.8899     -1928.5338    
     60500   294.35951      1320.1317     -2291.5576     -1911.6305    
     61000   317.53283      399.54899     -2302.1691     -1892.3324    
     61500   286.35531      554.99765     -2317.5628     -1947.9667    
     62000   300.7982       774.26399     -2322.1232     -1933.8858    
     62500   323.08153      344.51686     -2300.9482     -1883.9499    
     63000   292.23314      910.30612     -2315.8024     -1938.6198    
     63500   294.35221      1126.1674     -2322.3758     -1942.4581    
     64000   297.32831      2344.1862     -2317.614      -1933.8551    
     64500   307.59613      1861.2964     -2300.6616     -1903.6501    
     65000   295.8733       911.64733     -2297.6846     -1915.8037    
     65500   299.58228      1345.0951     -2338.8272     -1952.1591    
     66000   307.97564      1178.1209     -2298.1943     -1900.693     
     66500   310.71356     -522.05108     -2307.7205     -1906.6853    
     67000   297.55213      1070.779      -2328.6221     -1944.5743    
     67500   259.80839      1009.8434     -2286.0063     -1950.674     
     68000   302.22542     -846.04683     -2304.9933     -1914.9138    
     68500   315.64639      1584.177      -2325.6324     -1918.2305    
     69000   300.15806      1482.4355     -2338.5669     -1951.1557    
     69500   295.23908      406.41172     -2324.985      -1943.9226    
     70000   304.40238      1634.4522     -2289.0886     -1896.1993    
     70500   288.73561      820.19073     -2313.5221     -1940.8537    
     71000   305.1686       626.99441     -2342.2419     -1948.3636    
     71500   304.05276      3117.639      -2313.6102     -1921.1721    
     72000   304.17088      483.13874     -2304.3348     -1911.7442    
     72500   305.66794      2809.5732     -2277.8962     -1883.3734    
     73000   304.36891      840.33059     -2323.0314     -1930.1853    
     73500   294.65567      2880.1985     -2330.4318     -1950.1224    
     74000   294.38877      1010.1226     -2325.6265     -1945.6617    
     74500   287.98755     -692.24685     -2279.6846     -1907.9817    
     75000   282.31343      1714.7768     -2308.7452     -1944.3659    
     75500   289.37513      1636.872      -2333.1061     -1959.6123    
     76000   291.9187       1330.3521     -2302.9285     -1926.1517    
     76500   291.55754      513.30772     -2289.7657     -1913.455     
     77000   317.56396      640.70659     -2298.7357     -1888.8588    
     77500   307.22418     -118.93355     -2323.5413     -1927.0098    
     78000   317.98453      1801.2229     -2341.973      -1931.5534    
     78500   291.97048      441.9218      -2304.959      -1928.1154    
     79000   292.31296      639.49515     -2348.5858     -1971.3002    
     79500   310.53652      2210.9867     -2321.8819     -1921.0753    
     80000   306.55056      1052.6671     -2321.6237     -1925.9617    
     80500   281.96556      454.55221     -2335.4056     -1971.4752    
     81000   286.32456      1182.7115     -2321.1057     -1951.5492    
     81500   312.48369      1856.9873     -2315.2398     -1911.92      
     82000   293.82617      235.30014     -2327.8526     -1948.6139    
     82500   276.60893      219.91781     -2312.4151     -1955.3985    
     83000   293.70617      2255.4167     -2280.6958     -1901.612     
     83500   284.28181      451.29784     -2306.3852     -1939.4653    
     84000   297.46027      940.48402     -2323.3894     -1939.4602    
     84500   325.57585      1916.4681     -2295.3041     -1875.0863    
     85000   310.19651      2963.957      -2323.6479     -1923.2801    
     85500   275.66111      1249.3666     -2302.5337     -1946.7404    
     86000   310.04088     -153.84121     -2295.2979     -1895.131     
     86500   294.85722      1889.3121     -2295.4058     -1914.8363    
     87000   314.74323      1848.3218     -2336.8027     -1930.5665    
     87500   280.24657      1046.2895     -2334.1976     -1972.4859    
     88000   313.42572      308.52318     -2330.5766     -1926.0409    
     88500   306.94832      1134.7174     -2303.9371     -1907.7617    
     89000   311.36415      259.45063     -2285.6394     -1883.7646    
     89500   299.53273      1740.7242     -2319.129      -1932.5249    
     90000   311.40792      1167.1538     -2297.658      -1895.7266    
     90500   321.01709      718.17288     -2337.5023     -1923.1685    
     91000   315.79088      2238.0007     -2344.4022     -1936.8138    
     91500   316.08282     -152.48738     -2318.0168     -1910.0516    
     92000   292.33941     -0.47961612    -2331.9026     -1954.5829    
     92500   319.59026      2187.9793     -2326.2713     -1913.7791    
     93000   298.49951      2042.1332     -2296.905      -1911.6344    
     93500   298.97183      3202.359      -2313.7653     -1927.8851    
     94000   297.44667      621.74549     -2358.2423     -1974.3307    
     94500   290.71147      2134.1725     -2312.8562     -1937.6376    
     95000   320.5064       2073.4581     -2323.1788     -1909.5042    
     95500   292.87916      1122.0076     -2337.1571     -1959.1407    
     96000   275.67091      889.09007     -2326.0483     -1970.2424    
     96500   293.41785      1019.5064     -2328.5653     -1949.8536    
     97000   318.25855      1546.2564     -2308.2783     -1897.5049    
     97500   307.93711      2879.8748     -2294.9296     -1897.478     
     98000   308.24571      407.74851     -2316.7666     -1918.9167    
     98500   292.09912      1429.258      -2336.0631     -1959.0534    
     99000   296.60475      2052.6371     -2342.884      -1960.059     
     99500   308.03327      420.13862     -2321.3769     -1923.8012    
    100000   291.1882       1529.9968     -2296.4696     -1920.6357    
    100500   298.25835      907.88632     -2265.1552     -1880.1959    
    101000   301.64476      503.88546     -2325.129      -1935.7989    
    101500   281.5556       1139.1701     -2311.7903     -1948.3891    
    102000   296.44197      2331.7953     -2275.0399     -1892.425     
    102500   308.63034      1356.8461     -2325.4439     -1927.0976    
    103000   285.67573      960.30571     -2312.1502     -1943.4312    
    103500   310.03239      496.30625     -2296.654      -1896.4981    
    104000   310.17813      1415.9977     -2325.4897     -1925.1457    
    104500   307.80663      1896.142      -2338.0324     -1940.7492    
    105000   301.551        767.47338     -2316.2044     -1926.9954    
    105500   291.55975      354.07524     -2300.8188     -1924.5053    
    106000   308.11821      38.480503     -2323.5392     -1925.8539    
    106500   276.06723      196.54571     -2320.9621     -1964.6447    
    107000   299.88252      1571.5211     -2300.1734     -1913.1178    
    107500   299.15949      1603.2623     -2314.0587     -1927.9363    
    108000   276.29916      843.31448     -2315.8092     -1959.1924    
    108500   317.18545      1901.026      -2306.0915     -1896.7031    
    109000   314.45542     -144.20044     -2311.7194     -1905.8547    
    109500   286.39514      2711.7099     -2315.3832     -1945.7357    
    110000   323.69252      340.39938     -2337.5069     -1919.7199    
    110500   305.02738      80.235875     -2300.076      -1906.38      
    111000   297.28662      2350.6322     -2326.2172     -1942.5121    
    111500   310.05006      2715.5064     -2295.6333     -1895.4546    
    112000   302.60755      874.8525      -2286.5205     -1895.9478    
    112500   307.14735      1190.1038     -2326.3586     -1929.9264    
    113000   296.14396      994.2295      -2348.3502     -1966.12      
    113500   291.35194      89.271589     -2333.3709     -1957.3256    
    114000   291.15411      1074.7131     -2296.3914     -1920.6015    
    114500   319.34192      860.13723     -2297.6715     -1885.4998    
    115000   324.3399       2411.468      -2315.6341     -1897.0116    
    115500   281.32118      796.13456     -2307.344      -1944.2453    
    116000   284.79831      768.14088     -2333.9778     -1966.3912    
    116500   303.15287     -67.036286     -2310.5308     -1919.2542    
    117000   302.25257      1418.8015     -2299.1515     -1909.0369    
    117500   287.10452      134.87665     -2323.185      -1952.6218    
    118000   299.62098      596.61843     -2298.7539     -1912.0358    
    118500   309.70091      2476.6829     -2309.6374     -1909.9093    
    119000   302.52331      1857.9561     -2334.1489     -1943.6848    
    119500   312.91486      2162.3679     -2349.4353     -1945.559     
    120000   308.67644      983.96084     -2331.8838     -1933.478     
    120500   301.50368      1842.11       -2298.1903     -1909.0423    
    121000   319.64431      1313.0694     -2318.06       -1905.498     
    121500   304.15819      675.43653     -2341.9539     -1949.3797    
    122000   291.68359      2768.2292     -2280.7831     -1904.3098    
    122500   295.40727     -186.50968     -2286.1592     -1904.8798    
    123000   287.48776     -113.92788     -2308.0174     -1936.9596    
    123500   293.25086     -551.81826     -2362.0138     -1983.5176    
    124000   293.80195      462.42797     -2306.3274     -1927.12      
    124500   307.8128       3808.5782     -2302.7327     -1905.4416    
    125000   287.75067      1362.9382     -2325.3484     -1953.9512    
    125500   311.71284      153.55397     -2346.8668     -1944.5419    
    126000   318.04912      2057.1406     -2339.0269     -1928.5238    
    126500   289.63972      1273.9055     -2313.3433     -1939.508     
    127000   296.33376      3145.4832     -2274.4948     -1892.0195    
    127500   295.22408     -718.82108     -2321.7572     -1940.7142    
    128000   285.75865      1242.3479     -2313.5877     -1944.7616    
    128500   310.72379      1197.428      -2299.7712     -1898.7228    
    129000   313.29539     -367.63598     -2303.2621     -1898.8947    
    129500   298.46463      1365.1394     -2340.583      -1955.3575    
    130000   310.41429      1981.9271     -2327.3509     -1926.7021    
    130500   315.00006      575.24889     -2327.5147     -1920.947     
    131000   303.10676      761.2277      -2344.5472     -1953.3301    
    131500   310.0039       1351.8259     -2324.5953     -1924.4761    
    132000   282.14385      1377.4803     -2293.4002     -1929.2398    
    132500   298.94099      392.51197     -2360.0663     -1974.2259    
    133000   292.06627      526.2573      -2344.1406     -1967.1734    
    133500   302.48962      1349.8223     -2318.9697     -1928.5492    
    134000   301.64921      872.52814     -2299.4293     -1910.0934    
    134500   285.63243      2530.4919     -2332.2608     -1963.5977    
    135000   294.24049      811.1916      -2322.5623     -1942.7889    
    135500   318.65086      1035.6612     -2327.712      -1916.4323    
    136000   307.17542      1128.8696     -2343.7284     -1947.26      
    136500   287.04757      726.96114     -2349.7438     -1979.2542    
    137000   286.38526      1456.0056     -2295.1417     -1925.5069    
    137500   293.22533      479.84513     -2304.9613     -1926.4981    
    138000   302.07665      690.97368     -2266.4076     -1876.5201    
    138500   293.36964      1030.1711     -2291.6331     -1912.9836    
    139000   303.57335      1422.9041     -2324.5262     -1932.7069    
    139500   300.43969      666.17841     -2331.2082     -1943.4335    
    140000   302.2167       893.50399     -2310.6863     -1920.618     
    140500   310.21545      2320.8394     -2307.565      -1907.1728    
    141000   315.33208      2284.58       -2330.4659     -1923.4697    
    141500   294.65494      1436.2537     -2312.5478     -1932.2394    
    142000   298.2082       208.63783     -2310.7977     -1925.9031    
    142500   288.72876      1113.2176     -2294.2735     -1921.6139    
    143000   294.68046      13.012869     -2345.061      -1964.7196    
    143500   301.39031      298.43322     -2329.1815     -1940.1798    
    144000   300.42228      986.84488     -2295.9318     -1908.1795    
    144500   290.06981      1361.4949     -2323.5442     -1949.1537    
    145000   321.48581      1890.8756     -2307.5021     -1892.5634    
    145500   309.57271      122.49879     -2323.3785     -1923.8159    
    146000   294.16209      862.82956     -2316.6747     -1937.0024    
    146500   316.00558      1684.4431     -2307.8405     -1899.9751    
    147000   296.16416      1050.9773     -2338.6987     -1956.4423    
    147500   307.3573       46.526117     -2339.196      -1942.4928    
    148000   303.72097      1189.4548     -2299.9418     -1907.932     
    148500   288.15622      1602.629      -2303.0005     -1931.0799    
    149000   295.68174      1060.7439     -2339.9591     -1958.3254    
    149500   316.99865      1406.8252     -2316.5534     -1907.4062    
    150000   297.30295      1399.0529     -2315.034      -1931.3078    
    150500   296.88401      1341.7437     -2353.4187     -1970.2333    
    151000   284.84755      293.21981     -2315.3714     -1947.7213    
    151500   307.20341      2189.2643     -2305.3212     -1908.8166    
    152000   307.89395      2948.5121     -2299.9319     -1902.5361    
    152500   299.0274       375.5412      -2341.0584     -1955.1065    
    153000   301.27227      143.43423     -2313.7481     -1924.8988    
    153500   304.97438      614.83566     -2295.3358     -1901.7082    
    154000   305.1936       313.18445     -2328.3461     -1934.4355    
    154500   288.66824      1257.762      -2366.1057     -1993.5243    
    155000   292.66025      2151.1374     -2322.5136     -1944.7797    
    155500   291.80226      2606.1347     -2291.9174     -1915.2909    
    156000   297.86458     -41.500642     -2330.0525     -1945.6015    
    156500   302.01846     -1045.9353     -2345.7702     -1955.9577    
    157000   304.43895      1310.141      -2307.3842     -1914.4476    
    157500   299.35614     -472.05212     -2331.8869     -1945.5107    
    158000   303.85598      60.794942     -2390.4416     -1998.2575    
    158500   299.38878      1041.3786     -2325.6379     -1939.2196    
    159000   289.24514      1519.8317     -2302.559      -1929.233     
    159500   320.77523     -19.130715     -2314.5952     -1900.5736    
    160000   284.35664     -1413.7273     -2311.7155     -1944.6991    
    160500   279.69658      2668.8606     -2292.9249     -1931.9231    
    161000   328.19335      1300.6488     -2298.3589     -1874.7627    
    161500   298.02119      802.64287     -2315.8856     -1931.2324    
    162000   297.85952      845.8191      -2333.2695     -1948.825     
    162500   326.99551      294.92501     -2320.7441     -1898.6941    
    163000   280.16059      569.41075     -2298.1549     -1936.5542    
    163500   290.25374      65.409292     -2371.5603     -1996.9325    
    164000   302.65715      2632.9644     -2330.5065     -1939.8697    
    164500   295.99462     -246.1429      -2292.9536     -1910.916     
    165000   326.17286      968.67553     -2293.8478     -1872.8595    
    165500   292.81929      510.65665     -2311.8388     -1933.8996    
    166000   295.26967      1216.8289     -2306.2078     -1925.106     
    166500   300.90966      417.43457     -2289.7715     -1901.3902    
    167000   302.55507      1442.6247     -2315.573      -1925.068     
    167500   314.25624      143.39589     -2341.9361     -1936.3285    
    168000   303.99408      2261.1415     -2361.9868     -1969.6244    
    168500   302.62561      939.62555     -2336.3868     -1945.7907    
    169000   308.99835      925.39176     -2301.6989     -1902.8776    
    169500   297.55135      2109.2313     -2323.3118     -1939.265     
    170000   290.36113      673.46723     -2316.8983     -1942.1319    
    170500   294.83018      1298.876      -2295.0458     -1914.5112    
    171000   294.49333      423.21586     -2347.8696     -1967.7697    
    171500   291.88611      1302.3428     -2301.5068     -1924.7721    
    172000   284.20453      1252.6914     -2284.9651     -1918.145     
    172500   282.60539      1349.2302     -2333.7518     -1968.9956    
    173000   278.16671      198.78106     -2316.1979     -1957.1707    
    173500   286.62392      245.79559     -2295.727      -1925.7841    
    174000   296.90745      746.98576     -2300.771      -1917.5553    
    174500   317.04199      452.65669     -2296.7343     -1887.5311    
    175000   301.25544      279.10645     -2334.1917     -1945.364     
    175500   291.7324       2905.7315     -2313.4442     -1936.9079    
    176000   302.65422      322.42146     -2277.5823     -1886.9493    
    176500   307.02045      730.00842     -2308.528      -1912.2595    
    177000   305.57277      2234.2298     -2323.3169     -1928.917     
    177500   296.31155      481.49481     -2313.3395     -1930.8929    
    178000   281.45016      314.8632      -2330.6552     -1967.3901    
    178500   296.85859      1731.9844     -2299.7983     -1916.6457    
    179000   318.83211      2326.4529     -2316.821      -1905.3073    
    179500   303.8383       1835.2498     -2318.2472     -1926.0859    
    180000   288.7733       632.25022     -2327.7947     -1955.0777    
    180500   306.93154      1360.2718     -2297.9564     -1901.8027    
    181000   308.31946     -118.31753     -2325.4324     -1927.4873    
    181500   300.27185     -1380.0287     -2329.6395     -1942.0814    
    182000   286.47427      2493.2605     -2295.9789     -1926.2292    
    182500   300.22115      2929.9413     -2300.6254     -1913.1327    
    183000   318.26964      3557.9438     -2292.8396     -1882.0519    
    183500   308.25104      1133.875      -2337.2426     -1939.3858    
    184000   297.65609      1200.4505     -2329.836      -1945.654     
    184500   306.09993      1088.6139     -2286.5219     -1891.4415    
    185000   303.8824       1485.277      -2315.4546     -1923.2364    
    185500   307.85692      1288.4821     -2340.4172     -1943.0692    
    186000   299.89333      1780.1426     -2300.503      -1913.4335    
    186500   312.43006     -655.99394     -2274.4681     -1871.2176    
    187000   305.81031      945.39715     -2328.6433     -1933.9368    
    187500   283.3711       2155.3991     -2284.6264     -1918.8819    
    188000   313.93349      826.90081     -2308.0183     -1902.8273    
    188500   294.67035      678.54724     -2340.9754     -1960.6471    
    189000   299.18306      889.79729     -2328.3137     -1942.1608    
    189500   306.93221      976.31911     -2285.0749     -1888.9203    
    190000   298.00679      1538.0727     -2309.6946     -1925.06      
    190500   317.23062      488.38703     -2322.9638     -1913.5172    
    191000   308.3159       453.42086     -2319.1454     -1921.2049    
    191500   294.67929     -31.391629     -2341.5857     -1961.2459    
    192000   309.21417      886.23777     -2319.9164     -1920.8165    
    192500   300.65358      356.64404     -2280.066      -1892.0152    
    193000   302.01837      45.851227     -2323.4287     -1933.6164    
    193500   290.44469      495.84972     -2313.4875     -1938.6132    
    194000   297.59074      664.3042      -2314.1593     -1930.0617    
    194500   306.85113      624.93013     -2310.0897     -1914.0398    
    195000   321.14671      898.24833     -2316.0019     -1901.5008    
    195500   300.44074      1564.4421     -2324.7884     -1937.0123    
    196000   308.50158      807.18671     -2301.2607     -1903.0806    
    196500   313.68549      2427.7315     -2260.674      -1855.803     
    197000   306.13424      2105.5658     -2315.4405     -1920.3159    
    197500   300.20656      5.2643558     -2336.6163     -1949.1424    
    198000   299.17824      856.49498     -2298.3832     -1912.2367    
    198500   306.27491      856.88607     -2299.4263     -1904.1201    
    199000   297.81789      889.6067      -2316.671      -1932.2802    
    199500   307.75412      1516.2513     -2339.2648     -1942.0494    
    200000   272.77567      878.21934     -2329.0989     -1977.0298    
    200500   294.76488     -1041.6941     -2299.8463     -1919.396     
    201000   300.23169      1556.4339     -2326.0493     -1938.543     
    201500   283.60598      2332.0967     -2340.3115     -1974.2639    
    202000   297.03103      779.58619     -2303.0997     -1919.7245    
    202500   302.65186      2790.5412     -2312.8086     -1922.1787    
    203000   291.58333      1314.4848     -2310.9871     -1934.6432    
    203500   299.55864      2331.6444     -2276.8307     -1890.1932    
    204000   294.52273      131.78252     -2303.7227     -1923.585     
    204500   299.08498      482.41087     -2313.1939     -1927.1677    
    205000   308.73061      2337.8083     -2300.9644     -1902.4886    
    205500   285.83437      743.08512     -2294.5916     -1925.6678    
    206000   276.3365       1177.5063     -2309.9156     -1953.2506    
    206500   311.40428     -389.24305     -2296.3997     -1894.473     
    207000   292.926        957.66715     -2304.1477     -1926.0708    
    207500   306.03812      1969.3369     -2332.7786     -1937.7781    
    208000   307.10717      1365.8256     -2321.2097     -1924.8293    
    208500   311.74587     -65.373531     -2314.1252     -1911.7577    
    209000   297.8047       1441.8675     -2306.2292     -1921.8554    
    209500   299.64012      1462.3353     -2336.8338     -1950.0911    
    210000   306.47994      3663.3656     -2286.5309     -1890.9601    
    210500   315.4401       1084.0421     -2304.2667     -1897.1311    
    211000   293.08957      1879.04       -2323.281      -1944.993     
    211500   310.34806      418.39351     -2342.144      -1941.5806    
    212000   294.20968      2633.5767     -2290.3814     -1910.6477    
    212500   276.56045     -364.02814     -2297.1739     -1940.2199    
    213000   288.78271      1635.4943     -2329.9459     -1957.2167    
    213500   296.9147       766.48915     -2294.6415     -1911.4165    
    214000   298.3817       547.74901     -2297.0106     -1911.8921    
    214500   294.48948      1657.1658     -2307.4943     -1927.3994    
    215000   307.63409      2768.6421     -2347.1572     -1950.0968    
    215500   283.14498     -687.94823     -2331.4172     -1965.9646    
    216000   312.88208      1290.0567     -2316.5513     -1912.7173    
    216500   275.90382      654.58288     -2286.5675     -1930.461     
    217000   288.34391      1376.9294     -2332.6185     -1960.4557    
    217500   287.41397      1759.8743     -2315.7588     -1944.7963    
    218000   302.32802      1368.2751     -2297.4061     -1907.1941    
    218500   293.64097      1330.5797     -2324.1587     -1945.1591    
    219000   287.99156     -84.485574     -2319.6931     -1947.9851    
    219500   300.31966      422.61491     -2296.7361     -1909.1163    
    220000   289.27741      720.65542     -2296.8494     -1923.4818    
    220500   290.59649      353.69851     -2297.3609     -1922.2907    
    221000   305.76457      2270.2121     -2326.2525     -1931.605     
    221500   290.22148      1950.3667     -2313.9834     -1939.3972    
    222000   313.64983     -539.75809     -2305.5991     -1900.7741    
    222500   288.71915      1369.9034     -2311.0097     -1938.3626    
    223000   305.19668     -292.75898     -2329.6466     -1935.7321    
    223500   323.49056      940.28894     -2319.8357     -1902.3094    
    224000   293.72407     -140.9763      -2316.726      -1937.619     
    224500   286.91374      1124.553      -2307.7434     -1937.4265    
    225000   323.13261      458.69159     -2300.641      -1883.5767    
    225500   299.16999      1275.473      -2315.3672     -1929.2312    
    226000   296.90769      998.38884     -2323.7997     -1940.5837    
    226500   314.77653      1004.4193     -2283.5109     -1877.2317    
    227000   299.5593       982.19445     -2320.0155     -1933.377     
    227500   294.39926      1283.7726     -2316.1125     -1936.1341    
    228000   299.35668      1561.8085     -2269.7063     -1883.3294    
    228500   290.47658     -373.46108     -2297.3178     -1922.4024    
    229000   294.24933     -338.21278     -2312.0511     -1932.2662    
    229500   305.05402     -277.5894      -2312.9115     -1919.1811    
    230000   311.37687      858.7957      -2306.0412     -1904.1499    
    230500   300.11189     -336.31928     -2342.8309     -1955.4793    
    231000   298.13515      1923.4297     -2333.6421     -1948.8418    
    231500   325.01826      23.678734     -2326.5919     -1907.0939    
    232000   300.1607       196.72957     -2325.5115     -1938.0969    
    232500   298.72664      935.19536     -2324.5547     -1938.991     
    233000   304.06067      1211.9051     -2290.571      -1898.1227    
    233500   292.66975      2341.9255     -2319.9242     -1942.1781    
    234000   291.04005      515.48461     -2320.2454     -1944.6027    
    234500   303.98502      983.48957     -2294.4276     -1902.077     
    235000   284.91771      1225.8186     -2316.4425     -1948.7019    
    235500   278.0943       556.4856      -2308.9943     -1950.0606    
    236000   302.91455      1260.3825     -2300.6146     -1909.6456    
    236500   283.55365      2582.928      -2271.0654     -1905.0853    
    237000   281.77494      2043.9329     -2320.1181     -1956.4338    
    237500   301.44794     -711.66032     -2317.3555     -1928.2795    
    238000   293.38371     -298.49832     -2295.2995     -1916.6319    
    238500   277.29015      538.35671     -2307.6048     -1949.709     
    239000   278.29497      1671.7595     -2305.2713     -1946.0786    
    239500   310.15958      2031.8995     -2300.9227     -1900.6026    
    240000   301.88333      830.97379     -2334.7764     -1945.1383    
    240500   288.76897      647.70517     -2305.1529     -1932.4415    
    241000   301.74587      1269.3227     -2316.7049     -1927.2443    
    241500   272.71076      931.93999     -2324.5833     -1972.5981    
    242000   296.41815      1471.0794     -2355.5995     -1973.0153    
    242500   310.71888      1332.6242     -2341.0961     -1940.0541    
    243000   319.27552      2679.8504     -2319.8923     -1907.8064    
    243500   333.07804      1050.3685     -2291.1928     -1861.292     
    244000   310.31748      1240.3516     -2328.1885     -1927.6646    
    244500   311.58094      366.43083     -2353.2132     -1951.0585    
    245000   311.56235      1847.3895     -2318.4402     -1916.3096    
    245500   310.33762      2753.1078     -2293.0738     -1892.5239    
    246000   290.60875      415.70897     -2316.4397     -1941.3537    
    246500   306.19115      975.089       -2321.5448     -1926.3467    
    247000   306.49639      1452.0861     -2292.2834     -1896.6914    
    247500   305.61076      476.03153     -2273.4972     -1879.0482    
    248000   301.67798      1176.9392     -2322.4428     -1933.0698    
    248500   286.63785      1482.2353     -2309.9555     -1939.9947    
    249000   298.2975       207.02213     -2273.0501     -1888.0403    
    249500   308.19313      1352.1383     -2307.5994     -1909.8174    
    250000   295.42897     -102.86621     -2326.3116     -1945.0042    
    250500   285.25959      1073.1962     -2291.9896     -1923.8077    
    251000   283.40902     -63.784988     -2283.3712     -1917.5778    
    251500   289.76415      444.40919     -2308.1229     -1934.127     
    252000   305.97978      2366.5328     -2272.8529     -1877.9276    
    252500   310.1839       1488.7961     -2307.4942     -1907.1427    
    253000   296.77948      81.366446     -2295.318      -1912.2675    
    253500   302.97804     -0.65314928    -2320.6457     -1929.5948    
    254000   283.17724      279.75147     -2335.6066     -1970.1124    
    254500   304.65645     -101.91523     -2305.1167     -1911.8995    
    255000   292.37195      1608.1991     -2294.9392     -1917.5775    
    255500   293.21067     -108.02694     -2342.2022     -1963.7579    
    256000   290.41922      452.55348     -2321.8655     -1947.0241    
    256500   305.20527      1218.6941     -2309.1169     -1915.1913    
    257000   318.09634      1102.6859     -2267.2021     -1856.6381    
    257500   306.6086      -209.18927     -2315.8519     -1920.115     
    258000   308.65987      813.4864      -2341.3769     -1942.9925    
    258500   305.31175      1399.6842     -2293.642      -1899.579     
    259000   328.73566     -378.26164     -2337.8478     -1913.5517    
    259500   294.72344      701.33121     -2337.6549     -1957.2581    
    260000   303.71939      603.33602     -2316.2627     -1924.2549    
    260500   296.14036      1990.2456     -2317.5582     -1935.3326    
    261000   286.7448      -338.27964     -2339.3125     -1969.2136    
    261500   300.44896     -16.915522     -2302.1109     -1914.3242    
    262000   300.92363      989.54909     -2315.0994     -1926.7       
    262500   278.89385      335.36763     -2342.643      -1982.6773    
    263000   296.09226      1785.3546     -2356.3874     -1974.2238    
    263500   303.39345      1904.5688     -2310.278      -1918.6909    
    264000   289.6186       2420.1044     -2267.9125     -1894.1044    
    264500   321.42183      1392.7505     -2303.272      -1888.4158    
    265000   303.90458      1011.5035     -2339.8612     -1947.6143    
    265500   298.45673      1516.0314     -2339.5395     -1954.3242    
    266000   323.78366      707.57657     -2321.4953     -1903.5907    
    266500   298.70203     -469.24623     -2306.4913     -1920.9594    
    267000   307.35594      951.7436      -2319.2579     -1922.5564    
    267500   300.62073      1467.547      -2313.0909     -1925.0825    
    268000   292.84265      1104.8236     -2338.8491     -1960.8798    
    268500   321.03391      1037.2376     -2350.9187     -1936.5632    
    269000   304.71515      1602.0249     -2300.6278     -1907.3348    
    269500   318.81613      975.72246     -2326.4929     -1914.9999    
    270000   304.17426      872.04106     -2298.9726     -1906.3777    
    270500   324.06853      663.64602     -2301.2964     -1883.0242    
    271000   296.75796      1050.5875     -2322.6768     -1939.6541    
    271500   281.62829     -164.87547     -2312.3988     -1948.9038    
    272000   319.35398      188.11522     -2313.2618     -1901.0746    
    272500   297.16815      1742.1025     -2313.5714     -1930.0192    
    273000   304.93371      1004.0259     -2329.054      -1935.4789    
    273500   333.52141      1006.8261     -2311.8709     -1881.3979    
    274000   292.0991       1697.9267     -2307.8762     -1930.8666    
    274500   289.75563      1778.4765     -2313.6911     -1939.7062    
    275000   324.51841     -23.663284     -2301.653      -1882.8001    
    275500   293.61168     -191.53683     -2295.8059     -1916.8441    
    276000   308.14915     -59.802555     -2331.7231     -1933.9978    
    276500   305.15482     -581.67205     -2313.4414     -1919.5809    
    277000   286.43396      279.80963     -2338.595      -1968.8973    
    277500   310.45841      1367.5337     -2340.0482     -1939.3424    
    278000   283.74954      553.16868     -2282.8091     -1916.5762    
    278500   298.07012      462.39503     -2296.1534     -1911.437     
    279000   319.89011      809.12828     -2323.1214     -1910.2422    
    279500   308.02462      2029.0065     -2359.2776     -1961.7131    
    280000   313.17729      835.41518     -2345.4935     -1941.2785    
    280500   316.71763      1491.1709     -2293.8501     -1885.0655    
    281000   304.99036      1380.2702     -2290.5042     -1896.856     
    281500   301.0229       441.56433     -2336.8289     -1948.3014    
    282000   308.16628      1040.4129     -2340.3366     -1942.5893    
    282500   321.52184      878.92964     -2306.2511     -1891.2658    
    283000   300.67885     -1197.9304     -2287.7907     -1899.7073    
    283500   298.61355     -401.6071      -2324.6793     -1939.2616    
    284000   302.04884      2003.5986     -2323.1029     -1933.2513    
    284500   307.06804      993.75068     -2325.4017     -1929.0718    
    285000   310.59781      406.89144     -2277.9871     -1877.1014    
    285500   298.02889     -784.29028     -2297.9897     -1913.3265    
    286000   281.84001      344.58322     -2314.3258     -1950.5575    
    286500   315.13996      576.39672     -2308.4808     -1901.7326    
    287000   305.06162      1996.1607     -2320.922      -1927.1818    
    287500   299.22925      1480.64       -2327.0347     -1940.8222    
    288000   287.59466      35.005575     -2298.1209     -1926.9251    
    288500   288.23943      1678.1249     -2301.2819     -1929.2539    
    289000   287.59596      830.94232     -2336.1429     -1964.9454    
    289500   302.87327      1697.7115     -2319.1011     -1928.1854    
    290000   307.85137      1930.2218     -2306.9999     -1909.6589    
    290500   279.96944     -47.190938     -2319.8185     -1958.4645    
    291000   308.45193      521.13427     -2334.4792     -1936.3632    
    291500   311.18286      2225.9051     -2305.1762     -1903.5354    
    292000   308.79927      1476.4329     -2265.2916     -1866.7273    
    292500   288.654        2387.6238     -2298.8746     -1926.3115    
    293000   290.38723      1425.4688     -2309.8998     -1935.0996    
    293500   313.45764      1337.2438     -2293.2946     -1888.7177    
    294000   304.69704      1533.215      -2288.1866     -1894.9169    
    294500   309.05531      699.05087     -2335.7259     -1936.8311    
    295000   303.34494     -1325.1584     -2319.4111     -1927.8865    
    295500   301.57002      2072.0951     -2270.3555     -1881.1219    
    296000   295.37918     -352.74056     -2310.9145     -1929.6713    
    296500   298.47042      324.53633     -2326.5738     -1941.3408    
    297000   282.84234      10.063006     -2301.6062     -1936.5442    
    297500   309.16951      2644.0207     -2299.4834     -1900.4411    
    298000   304.97401      1468.8323     -2333.7884     -1940.1613    
    298500   318.16492      14.495191     -2348.7568     -1938.1043    
    299000   305.5763      -71.487323     -2339.4911     -1945.0866    
    299500   297.4406       205.30426     -2288.9104     -1905.0066    
    300000   314.43025      1464.8473     -2315.6415     -1909.8093    
    300500   297.39396      1223.3835     -2335.7493     -1951.9057    
    301000   295.18257      1013.8845     -2297.6474     -1916.658     
    301500   307.69603      456.92554     -2323.0844     -1925.9439    
    302000   302.9512       1994.5532     -2318.8918     -1927.8755    
    302500   294.84836      835.11582     -2308.719      -1928.161     
    303000   304.22218      730.18054     -2291.9467     -1899.29      
    303500   293.55181      642.83746     -2283.6968     -1904.8122    
    304000   297.14518      2156.5162     -2326.972      -1943.4494    
    304500   322.13833      846.68295     -2322.8296     -1907.0486    
    305000   309.05943      2929.872      -2284.669      -1885.7689    
    305500   305.55011     -1082.0667     -2323.1464     -1928.7757    
    306000   295.24411      696.09285     -2296.0234     -1914.9546    
    306500   309.98631      1231.6815     -2335.7934     -1935.697     
    307000   285.24452     -512.57166     -2323.8226     -1955.6601    
    307500   312.13471      2520.2711     -2306.4223     -1903.5529    
    308000   285.97122      578.22891     -2316.6079     -1947.5075    
    308500   322.70222      839.02554     -2351.2084     -1934.6996    
    309000   307.8319       1963.8059     -2331.7995     -1934.4837    
    309500   301.89        -96.90393      -2315.6543     -1926.0076    
    310000   321.94101      866.54171     -2304.5796     -1889.0533    
    310500   295.25695      1215.7102     -2330.3102     -1949.2248    
    311000   303.94917      705.62207     -2345.3436     -1953.0392    
    311500   312.90477      1500.9761     -2298.773      -1894.9097    
    312000   298.97405      1543.4736     -2297.8387     -1911.9557    
    312500   313.58323     -244.8541      -2346.6148     -1941.8759    
    313000   278.80875      696.78184     -2306.2606     -1946.4047    
    313500   308.61695      1279.5615     -2292.383      -1894.054     
    314000   302.34294      885.07732     -2318.3838     -1928.1526    
    314500   306.79535      100.33694     -2333.1408     -1937.1629    
    315000   300.75112      1489.9009     -2323.9348     -1935.7581    
    315500   285.91916     -567.77342     -2334.9425     -1965.9093    
    316000   293.73601      52.558284     -2339.9298     -1960.8075    
    316500   290.26185     -431.72307     -2287.8644     -1913.2261    
    317000   286.64087      957.72285     -2325.6643     -1955.6996    
    317500   285.06351      932.09125     -2318.0248     -1950.0959    
    318000   308.49012      1618.9078     -2320.7202     -1922.5549    
    318500   288.97228      165.74627     -2318.0186     -1945.0447    
    319000   288.49484      1807.7706     -2351.2419     -1978.8843    
    319500   297.31252      1493.6841     -2302.4006     -1918.6621    
    320000   304.624        751.82736     -2318.687      -1925.5116    
    320500   313.43088      186.37873     -2299.1207     -1894.5784    
    321000   324.39745     -784.61313     -2309.393      -1890.6962    
    321500   298.9983       324.5865      -2330.0082     -1944.0939    
    322000   302.05102      58.832576     -2306.8354     -1916.981     
    322500   304.58384      1507.4972     -2275.4115     -1882.2879    
    323000   298.95912      877.69224     -2326.0405     -1940.1767    
    323500   308.77784      349.88829     -2323.1165     -1924.5798    
    324000   301.20521      1106.7902     -2276.9173     -1888.1545    
    324500   301.49349      946.46636     -2307.3873     -1918.2524    
    325000   309.70176      1143.5371     -2338.4725     -1938.7433    
    325500   313.80631      1611.0405     -2304.3338     -1899.3069    
    326000   302.83362      746.65166     -2349.5503     -1958.6858    
    326500   294.41051      2577.169      -2307.0489     -1927.056     
    327000   308.2474       2644.0475     -2321.1893     -1923.3372    
    327500   273.33056     -1015.9311     -2308.895      -1956.1097    
    328000   309.94498      573.14827     -2304.3686     -1904.3255    
    328500   315.36704      872.5573      -2338.1988     -1931.1575    
    329000   287.9698       1071.8706     -2330.9475     -1959.2676    
    329500   288.15421      946.96717     -2311.9323     -1940.0144    
    330000   298.58083      1300.5133     -2324.2231     -1938.8476    
    330500   298.31828      1590.3936     -2274.1526     -1889.1159    
    331000   315.62645     -215.43146     -2316.1926     -1908.8164    
    331500   293.84021      2475.4641     -2333.2029     -1953.9461    
    332000   305.44754      827.92336     -2297.9203     -1903.682     
    332500   302.13909      1573.4062     -2300.7263     -1910.7582    
    333000   273.0699       26.843656     -2321.643      -1969.1942    
    333500   281.87192      943.04501     -2317.8403     -1954.0308    
    334000   296.2992       1953.3807     -2312.0619     -1929.6313    
    334500   304.97517      1686.6718     -2292.3855     -1898.7569    
    335000   290.61929      1429.7267     -2328.837      -1953.7374    
    335500   297.78768      1480.1592     -2314.3711     -1930.0193    
    336000   290.38237      654.95045     -2283.1816     -1908.3878    
    336500   303.34325      1020.8147     -2321.1257     -1929.6034    
    337000   293.19472      190.73007     -2346.4722     -1968.0485    
    337500   296.87722     -449.05364     -2332.1201     -1948.9434    
    338000   313.96146      792.61206     -2328.8305     -1923.6034    
    338500   296.4459       1707.0401     -2362.8903     -1980.2704    
    339000   301.02723     -1136.0187     -2337.1908     -1948.6578    
    339500   297.59802     -178.49258     -2306.4952     -1922.3882    
    340000   314.95238      1842.4825     -2331.993      -1925.4869    
    340500   269.4521       2120.0945     -2325.2434     -1977.4641    
    341000   311.25792      1353.7244     -2337.3892     -1935.6514    
    341500   287.78181      1958.8194     -2294.0005     -1922.5631    
    342000   292.51555     -653.35192     -2322.7369     -1945.1898    
    342500   288.18594      623.92084     -2340.8871     -1968.9281    
    343000   305.95801      1323.6446     -2310.1256     -1915.2284    
    343500   312.05879      2403.0274     -2337.4434     -1934.6721    
    344000   271.24409      963.05867     -2338.754      -1988.6618    
    344500   295.16807      385.03714     -2331.2897     -1950.319     
    345000   302.75548     -158.09195     -2329.5914     -1938.8277    
    345500   295.80461      861.45867     -2278.179      -1896.3867    
    346000   305.0295       2364.7263     -2311.438      -1917.7392    
    346500   309.09147      263.29911     -2340.9495     -1942.008     
    347000   312.49832      316.53187     -2302.9035     -1899.5648    
    347500   302.11427      2421.1056     -2303.6347     -1913.6986    
    348000   299.96307      801.92657     -2336.1398     -1948.9802    
    348500   307.1897       797.32252     -2322.8207     -1926.3338    
    349000   291.70162      3070.9508     -2272.0506     -1895.554     
    349500   299.56952      1297.838      -2344.9773     -1958.3256    
    350000   299.45406      769.40929     -2310.7646     -1924.262     
    350500   332.74234      872.40983     -2324.21       -1894.7426    
    351000   289.70794      1890.5408     -2327.7505     -1953.8271    
    351500   311.08548      575.88819     -2321.2658     -1919.7507    
    352000   312.49613      1461.1578     -2312.9174     -1909.5815    
    352500   299.28256      847.37079     -2354.9639     -1968.6826    
    353000   290.73365      490.38544     -2311.0211     -1935.7739    
    353500   300.2657       786.36898     -2284.9778     -1897.4276    
    354000   292.34551      2353.9026     -2306.5915     -1929.2639    
    354500   289.06274      193.5784      -2352.7103     -1979.6197    
    355000   296.47249      1236.6162     -2307.7799     -1925.1256    
    355500   290.08389      3625.8638     -2286.9672     -1912.5586    
    356000   296.74198      531.62194     -2349.4382     -1966.4361    
    356500   305.47698      1170.3269     -2341.314      -1947.0377    
    357000   299.0995       526.66504     -2306.1226     -1920.0776    
    357500   300.5135       1222.185      -2310.2785     -1922.4085    
    358000   279.06432      607.16293     -2313.123      -1952.9372    
    358500   315.11579     -863.07829     -2312.1438     -1905.4267    
    359000   303.29699      1541.3702     -2308.2084     -1916.7458    
    359500   293.943        1529.5107     -2325.9375     -1946.548     
    360000   307.37813      1155.5968     -2323.9469     -1927.2168    
    360500   310.72765      6.9362076     -2282.8239     -1881.7706    
    361000   276.00999      588.28889     -2265.85       -1909.6065    
    361500   294.17202      1005.5226     -2314.4838     -1934.7987    
    362000   294.17299      1923.5521     -2312.0559     -1932.3695    
    362500   313.65595      1985.3315     -2332.7592     -1927.9264    
    363000   278.17752      2088.5479     -2317.0143     -1957.9732    
    363500   285.90378      1284.1725     -2329.9086     -1960.8953    
    364000   318.11219      695.82627     -2315.2612     -1904.6767    
    364500   297.06444     -1373.0996     -2316.1809     -1932.7626    
    365000   284.34742      1071.5193     -2330.2543     -1963.2497    
    365500   283.95973      1958.2139     -2268.9659     -1902.4617    
    366000   299.45398      2371.0589     -2322.5966     -1936.0941    
    366500   287.18331      243.31831     -2335.7108     -1965.046     
    367000   313.79073      1529.1124     -2305.0152     -1900.0085    
    367500   290.82839      1716.1743     -2304.4504     -1929.0809    
    368000   304.88992     -576.35726     -2352.6258     -1959.1072    
    368500   276.70523      591.22508     -2357.5681     -2000.4272    
    369000   292.55542      540.34562     -2324.3271     -1946.7286    
    369500   285.93893     -1167.8876     -2294.2722     -1925.2135    
    370000   313.29372      385.05727     -2303.686      -1899.3207    
    370500   285.44591      2686.795      -2323.4406     -1955.0182    
    371000   294.84045      1027.9016     -2312.7818     -1932.234     
    371500   304.98042      2701.4185     -2282.4066     -1888.7712    
    372000   289.10965      409.97238     -2293.0324     -1919.8813    
    372500   305.00049     -265.17354     -2339.383      -1945.7217    
    373000   300.14539      2717.0188     -2294.4125     -1907.0176    
    373500   288.2839      -408.33545     -2293.1329     -1921.0476    
    374000   309.95555     -285.72971     -2334.5266     -1934.4698    
    374500   291.73764      1717.4873     -2291.2928     -1914.7497    
    375000   289.68577      1434.3735     -2336.3881     -1962.4933    
    375500   283.59891      1872.19       -2321.4042     -1955.3657    
    376000   290.41504     -283.8714      -2297.7054     -1922.8694    
    376500   299.41248      773.38911     -2342.3357     -1955.8868    
    377000   312.11008      1940.0393     -2318.3633     -1915.5257    
    377500   295.44931      364.70502     -2285.4907     -1904.157     
    378000   290.87019      1201.7082     -2325.9099     -1950.4864    
    378500   304.48946      496.12145     -2323.468      -1930.4663    
    379000   311.05319      1634.079      -2331.2318     -1929.7584    
    379500   272.79668      366.59297     -2307.8343     -1955.7381    
    380000   276.68566      1224.7519     -2351.2247     -1994.109     
    380500   291.91645      1363.6411     -2316.1713     -1939.3974    
    381000   304.58513      1036.3368     -2296.3839     -1903.2587    
    381500   308.58534     -819.08901     -2351.8122     -1953.524     
    382000   294.87704     -1066.4509     -2310.791      -1930.1959    
    382500   315.59083     -400.24048     -2308.4387     -1901.1085    
    383000   302.95298      904.21196     -2331.7104     -1940.6918    
    383500   320.08941      786.21047     -2347.2167     -1934.0802    
    384000   299.85799      1354.0539     -2295.3857     -1908.3617    
    384500   318.60794      566.84877     -2306.0709     -1894.8465    
    385000   302.30137      2155.078      -2332.9869     -1942.8094    
    385500   290.35089      1357.6704     -2334.5093     -1959.756     
    386000   294.12136      1772.1854     -2305.8194     -1926.1996    
    386500   315.58295      1976.6212     -2318.2485     -1910.9285    
    387000   278.39096      230.67985     -2322.5628     -1963.2461    
    387500   294.03608      845.38746     -2324.6421     -1945.1324    
    388000   305.5171       1643.9125     -2312.4024     -1918.0743    
    388500   300.71291      536.17745     -2352.606      -1964.4786    
    389000   292.42426      656.11014     -2335.6338     -1958.2045    
    389500   299.19167     -507.97864     -2300.0804     -1913.9165    
    390000   301.47323      1032.8948     -2303.2122     -1914.1035    
    390500   289.49812      397.50769     -2343.567      -1969.9144    
    391000   291.75316      1083.4996     -2323.9403     -1947.3772    
    391500   292.22571      891.54045     -2309.0331     -1931.8601    
    392000   291.63431      84.946913     -2291.712      -1915.3023    
    392500   307.40101      1279.8607     -2282.4773     -1885.7177    
    393000   293.20437     -99.908255     -2326.9494     -1948.5132    
    393500   283.18065      1100.335      -2305.5425     -1940.0438    
    394000   321.91736      636.86826     -2310.0111     -1894.5153    
    394500   303.48047      345.26681     -2329.538      -1937.8386    
    395000   301.01619      313.40623     -2331.7637     -1943.2449    
    395500   298.20616      1383.4578     -2289.7333     -1904.8413    
    396000   313.06232      311.79136     -2290.7887     -1886.722     
    396500   304.16128      1885.3693     -2301.0234     -1908.4452    
    397000   306.36482     -532.1509      -2333.0815     -1937.6592    
    397500   284.6012       510.48512     -2334.0246     -1966.6925    
    398000   307.63837      54.422656     -2308.6763     -1911.6103    
    398500   292.29115      1089.4139     -2311.9344     -1934.677     
    399000   277.30902      633.46184     -2340.6985     -1982.7783    
    399500   301.43946      47.509591     -2343.7595     -1954.6943    
    400000   313.11241      822.28988     -2326.3486     -1922.2173    
    400500   312.90438      534.79454     -2296.1606     -1892.2978    
    401000   305.74445      1648.2407     -2316.9059     -1922.2844    
    401500   300.36948      735.99326     -2334.1812     -1946.497     
    402000   298.61214      1303.9111     -2316.8668     -1931.4508    
    402500   296.35742      956.53872     -2317.3952     -1934.8894    
    403000   307.4215       575.77159     -2348.9284     -1952.1423    
    403500   310.57537      93.630571     -2344.1236     -1943.2669    
    404000   320.77468      2039.8978     -2314.6873     -1900.6663    
    404500   281.86112     -563.79286     -2305.7824     -1941.9869    
    405000   302.66045      615.54457     -2326.8495     -1936.2085    
    405500   308.98155     -115.39574     -2308.7754     -1909.9758    
    406000   290.08923      714.01176     -2335.4141     -1960.9986    
    406500   298.98374      626.08081     -2342.5851     -1956.6896    
    407000   313.29641      973.55907     -2311.6463     -1907.2776    
    407500   292.08456      1448.7364     -2298.4145     -1921.4237    
    408000   278.42455      992.11645     -2328.8529     -1969.4929    
    408500   296.15287      2160.4943     -2336.7499     -1954.5082    
    409000   307.28097      117.88554     -2328.767      -1932.1622    
    409500   311.8896       403.19908     -2310.0211     -1907.4681    
    410000   301.66915      321.40309     -2340.2949     -1950.9334    
    410500   289.60935      841.06925     -2320.2307     -1946.4346    
    411000   307.43274     -156.04795     -2301.19       -1904.3894    
    411500   287.20307      1268.8206     -2300.2574     -1929.567     
    412000   287.33039     -320.92029     -2325.9603     -1955.1056    
    412500   283.71688      164.10477     -2366.7486     -2000.5579    
    413000   287.98025      936.19909     -2312.3756     -1940.6822    
    413500   300.8615       1834.547      -2311.2378     -1922.9187    
    414000   294.90137      1252.9668     -2355.1844     -1974.558     
    414500   307.80406      2810.6092     -2334.9777     -1937.6979    
    415000   292.94731      2512.3677     -2314.3664     -1936.262     
    415500   314.77548      2197.9226     -2308.7196     -1902.4418    
    416000   327.21846      1467.7381     -2296.9032     -1874.5654    
    416500   295.25082      1589.9105     -2313.2581     -1932.1806    
    417000   292.69316     -871.06553     -2313.9025     -1936.1261    
    417500   303.04038      3710.2135     -2280.3962     -1889.2648    
    418000   296.36733      121.78451     -2316.6156     -1934.097     
    418500   287.78479     -873.23376     -2315.031      -1943.5898    
    419000   308.1297       385.71468     -2284.8346     -1887.1345    
    419500   313.68446      1497.4306     -2318.7077     -1913.8381    
    420000   307.27582      2231.9094     -2335.927      -1939.3289    
    420500   287.7521       861.34701     -2328.8569     -1957.4579    
    421000   325.919        1242.8543     -2315.4397     -1894.779     
    421500   295.07018      796.52285     -2313.4074     -1932.563     
    422000   288.61029      600.07796     -2314.9598     -1942.4532    
    422500   287.38355      1320.9728     -2300.1219     -1929.1986    
    423000   303.27358      688.35488     -2330.8457     -1939.4133    
    423500   297.86407      1669.3194     -2373.1827     -1988.7323    
    424000   297.69174      2208.3944     -2319.6029     -1935.3749    
    424500   313.4053       935.82287     -2325.69       -1921.1807    
    425000   292.41532      1121.1357     -2316.161      -1938.7433    
    425500   305.85572     -441.25774     -2363.9403     -1969.1752    
    426000   313.08803      1218.7553     -2314.5809     -1910.481     
    426500   281.97106      1984.7748     -2290.8058     -1926.8683    
    427000   278.78711      1384.5568     -2322.6862     -1962.8583    
    427500   320.60167      937.42293     -2319.7083     -1905.9107    
    428000   312.40922      2071.4013     -2323.3306     -1920.1069    
    428500   273.65629      900.9048      -2322.7799     -1969.5742    
    429000   302.11217      1807.7682     -2338.5952     -1948.6618    
    429500   297.04814      1333.1083     -2314.3152     -1930.9179    
    430000   307.52819      998.07119     -2272.293      -1875.3692    
    430500   300.61102     -603.75258     -2303.2765     -1915.2806    
    431000   292.37052      899.14886     -2317.6548     -1940.2949    
    431500   327.76174      2343.9274     -2335.2842     -1912.2452    
    432000   313.07727      159.66793     -2287.7203     -1883.6343    
    432500   304.34875      875.4654      -2328.4126     -1935.5925    
    433000   290.79718      870.42609     -2327.5988     -1952.2696    
    433500   313.90777      203.09677     -2301.2055     -1896.0476    
    434000   315.24749      127.80736     -2334.7499     -1927.8628    
    434500   265.17942      1718.1494     -2313.2653     -1971.0007    
    435000   275.11895      720.86876     -2308.4606     -1953.3671    
    435500   309.40251      2160.3543     -2304.0651     -1904.7222    
    436000   277.68252      723.73274     -2304.5475     -1946.1452    
    436500   302.53725     -673.02895     -2332.1205     -1941.6385    
    437000   308.12382      182.62215     -2339.9118     -1942.2192    
    437500   330.57638      1635.8279     -2329.3353     -1902.6634    
    438000   287.48446      1257.1658     -2304.2628     -1933.2093    
    438500   306.92729      1348.4355     -2342.588      -1946.4398    
    439000   286.86634      1137.9768     -2287.475      -1917.2192    
    439500   312.1804       1689.9944     -2307.4158     -1904.4875    
    440000   287.04253      1492.57       -2297.1488     -1926.6657    
    440500   280.63996      545.62168     -2311.9627     -1949.7433    
    441000   269.48547      380.86257     -2349.6333     -2001.8109    
    441500   307.06409      625.94202     -2351.3799     -1955.0551    
    442000   309.35175      1050.7167     -2326.2928     -1927.0153    
    442500   318.26905      1492.0131     -2332.1845     -1921.3976    
    443000   292.56214      600.15225     -2348.2505     -1970.6433    
    443500   299.64485      1116.1907     -2313.1505     -1926.4016    
    444000   301.63159      713.57323     -2309.2677     -1919.9546    
    444500   285.86608      1142.3894     -2331.8826     -1962.9179    
    445000   305.93118      1655.6498     -2320.6271     -1925.7645    
    445500   322.2242      -236.50907     -2330.399      -1914.5072    
    446000   294.79744     -551.38907     -2331.1026     -1950.6102    
    446500   300.18711      2178.9996     -2283.0213     -1895.5726    
    447000   293.62681      324.73989     -2299.8835     -1920.9021    
    447500   305.21325      1218.4862     -2317.8112     -1923.8753    
    448000   285.67999      1831.5902     -2281.9355     -1913.2109    
    448500   304.59768     -406.46614     -2336.3542     -1943.2128    
    449000   290.18612      522.31345     -2342.5181     -1967.9776    
    449500   326.04271      1628.4422     -2342.2639     -1921.4436    
    450000   312.81748      584.74202     -2322.2237     -1918.4731    
    450500   302.34747      503.0229      -2357.032      -1966.7949    
    451000   295.01727      2482.9997     -2307.4994     -1926.7233    
    451500   300.72345      720.06002     -2306.019      -1917.878     
    452000   288.56292      615.19887     -2338.8033     -1966.3578    
    452500   299.2559       1710.0164     -2323.6559     -1937.4091    
    453000   300.81925      1649.0832     -2305.0441     -1916.7795    
    453500   319.70319      1500.1669     -2269.0783     -1856.4403    
    454000   322.17223      1075.5321     -2329.0925     -1913.2678    
    454500   304.68391      1933.0301     -2342.3513     -1949.0986    
    455000   294.01175      1510.5627     -2322.1578     -1942.6795    
    455500   322.85658      1723.1652     -2312.1277     -1895.4197    
    456000   294.72074      1923.7071     -2310.6242     -1930.2309    
    456500   295.47156      542.8572      -2299.6286     -1918.2662    
    457000   297.37196      298.14882     -2306.9737     -1923.1585    
    457500   283.94611      863.5744      -2299.0715     -1932.5849    
    458000   291.9681       794.88984     -2317.7263     -1940.8857    
    458500   309.29524      3437.216      -2292.1532     -1892.9487    
    459000   309.00921      419.23529     -2331.8495     -1933.0142    
    459500   304.21019      737.38567     -2335.9865     -1943.3452    
    460000   303.54091      2712.7978     -2276.9859     -1885.2084    
    460500   311.57086      1196.7649     -2312.4857     -1910.3441    
    461000   286.57234     -550.53704     -2303.5576     -1933.6814    
    461500   295.11701      1381.2176     -2313.3663     -1932.4615    
    462000   306.38372      2632.2526     -2295.7621     -1900.3155    
    462500   314.34719      1191.6682     -2310.16       -1904.435     
    463000   297.04381     -286.00947     -2342.6157     -1959.224     
    463500   303.43006      536.89797     -2314.4857     -1922.8513    
    464000   301.52432      448.22691     -2295.1407     -1905.9661    
    464500   312.9887       1137.9338     -2323.6793     -1919.7077    
    465000   301.69249      965.79401     -2323.6486     -1934.2569    
    465500   303.26812      455.23345     -2367.6647     -1976.2394    
    466000   310.12561      659.19572     -2332.9202     -1932.6439    
    466500   299.9203       2938.2145     -2317.8107     -1930.7064    
    467000   284.22465      715.73285     -2324.0849     -1957.2387    
    467500   293.75031      2510.4688     -2302.174      -1923.0332    
    468000   300.51695      1552.5718     -2300.5074     -1912.633     
    468500   282.19185      1258.1325     -2335.2414     -1971.019     
    469000   302.84643      1550.1969     -2320.4241     -1929.543     
    469500   306.06923      628.71566     -2312.9616     -1917.9209    
    470000   298.53933      821.35765     -2365.5017     -1980.1798    
    470500   307.83094      1231.3109     -2335.8824     -1938.5679    
    471000   295.88996      514.19247     -2289.3223     -1907.4199    
    471500   314.45498      1641.4783     -2275.5574     -1869.6932    
    472000   301.06115      846.67848     -2299.6918     -1911.115     
    472500   296.89787     -452.29468     -2310.1438     -1926.9405    
    473000   298.51312      203.77352     -2282.5594     -1897.2713    
    473500   295.35345      176.1917      -2263.5605     -1882.3505    
    474000   304.68163     -501.36963     -2333.7474     -1940.4976    
    474500   290.40246     -230.00576     -2298.208      -1923.3882    
    475000   306.94687     -368.22314     -2281.099      -1884.9255    
    475500   284.36985      910.01794     -2287.4614     -1920.4279    
    476000   300.14482      103.07499     -2349.0225     -1961.6283    
    476500   274.162       -232.65849     -2295.9321     -1942.0738    
    477000   323.24855      2690.8399     -2313.5509     -1896.337     
    477500   304.79808      287.98372     -2311.9267     -1918.5266    
    478000   299.05908      927.59155     -2308.4129     -1922.4201    
    478500   305.27158      1317.1811     -2325.4173     -1931.4061    
    479000   289.62519      129.11709     -2356.605      -1982.7884    
    479500   291.64958      1969.201      -2319.1667     -1942.7373    
    480000   295.77289      505.98862     -2318.162      -1936.4107    
    480500   311.92742     -544.76593     -2340.5912     -1937.9894    
    481000   318.67967      2113.0856     -2314.0513     -1902.7344    
    481500   291.34328     -715.26192     -2321.8525     -1945.8184    
    482000   269.58818      2295.6914     -2285.4389     -1937.4839    
    482500   303.41443      1730.2806     -2306.5821     -1914.9679    
    483000   306.88437      134.06992     -2329.3731     -1933.2803    
    483500   285.06467      535.61032     -2326.0932     -1958.1628    
    484000   315.40426      1717.1158     -2325.5649     -1918.4755    
    484500   290.94405      1561.7881     -2291.8134     -1916.2946    
    485000   294.18086      1807.9557     -2347.7744     -1968.0779    
    485500   304.69164      1057.8952     -2330.4031     -1937.1404    
    486000   298.19433      2542.5812     -2302.2116     -1917.3349    
    486500   274.10684     -475.16896     -2332.8386     -1979.0514    
    487000   286.83129      1390.0245     -2324.019      -1953.8085    
    487500   299.12459      3239.8233     -2300.4315     -1914.3541    
    488000   331.20393      314.82754     -2316.8747     -1889.3928    
    488500   303.27043      1672.1626     -2341.379      -1949.9506    
    489000   301.34527      129.55613     -2330.3016     -1941.358     
    489500   317.25907      654.37734     -2309.3864     -1899.903     
    490000   288.0324       2007.6717     -2286.6994     -1914.9386    
    490500   279.60638      1311.4255     -2329.2162     -1968.3308    
    491000   305.78961      1818.9588     -2329.448      -1934.7682    
    491500   297.40682      510.15593     -2301.0966     -1917.2364    
    492000   309.85274      2252.2062     -2310.8283     -1910.9042    
    492500   279.55905      2410.8713     -2306.6542     -1945.8299    
    493000   291.38294     -732.69112     -2346.612      -1970.5267    
    493500   306.98493      400.9231      -2301.8338     -1905.6112    
    494000   296.81098      959.77651     -2308.9673     -1925.8761    
    494500   278.17936      1656.7548     -2318.874      -1959.8304    
    495000   300.65575      1425.515      -2335.4172     -1947.3636    
    495500   322.14243      1685.129      -2299.0163     -1883.2301    
    496000   303.72375      480.71676     -2326.0349     -1934.0215    
    496500   296.12572      833.4159      -2328.3501     -1946.1434    
    497000   313.2303       808.50209     -2292.9366     -1888.6532    
    497500   302.67819     -246.60987     -2313.2523     -1922.5884    
    498000   290.91837      910.15189     -2313.6452     -1938.1595    
    498500   288.69603      2171.5727     -2301.9372     -1929.3199    
    499000   306.30947      1972.9118     -2337.0618     -1941.711     
    499500   289.58316      397.96324     -2312.2976     -1938.5353    
    500000   317.66497      1839.7906     -2307.5526     -1897.5453    
    500500   282.72901      1572.5341     -2300.7383     -1935.8226    
    501000   289.95307     -265.22308     -2315.4446     -1941.2048    
    501500   318.26348      458.46249     -2320.5399     -1909.7602    
    502000   286.40098      1722.0531     -2322.67       -1953.0149    
    502500   308.26197      1341.5039     -2344.6629     -1946.792     
    503000   300.50916      1488.9394     -2291.0773     -1903.2129    
    503500   297.72748      456.90694     -2313.7958     -1929.5216    
    504000   290.68425      2262.5092     -2318.9061     -1943.7226    
    504500   292.68664      1230.1714     -2309.7199     -1931.952     
    505000   287.76426      338.13005     -2313.865      -1942.4503    
    505500   302.37022      800.371       -2332.3238     -1942.0574    
    506000   297.43344      987.43241     -2292.1706     -1908.276     
    506500   288.68893      1086.7111     -2322.859      -1950.2509    
    507000   308.69084      607.79467     -2336.5861     -1938.1617    
    507500   297.70294      1442.1218     -2310.7237     -1926.4813    
    508000   305.02312      393.75008     -2318.9628     -1925.2723    
    508500   307.46009      1989.7763     -2301.4765     -1904.6406    
    509000   309.57631      2324.7168     -2278.916      -1879.3488    
    509500   290.22497      273.30054     -2312.0107     -1937.42      
    510000   311.90148      359.34302     -2316.0164     -1913.448     
    510500   315.47775      1701.7434     -2300.8316     -1893.6474    
    511000   308.91611      438.49439     -2348.1031     -1949.3879    
    511500   311.4962       1387.3324     -2321.793      -1919.7477    
    512000   326.20492      1650.4861     -2307.9703     -1886.9406    
    512500   282.7363      -698.68112     -2317.0992     -1952.1741    
    513000   291.4415      -484.12853     -2335.2916     -1959.1307    
    513500   301.11093      1463.2316     -2307.0268     -1918.3857    
    514000   303.2978      -488.11487     -2315.1701     -1923.7064    
    514500   286.3115       1707.2942     -2320.2686     -1950.729     
    515000   306.96065      1403.3042     -2319.4093     -1923.2181    
    515500   309.95857      732.31938     -2331.3354     -1931.2747    
    516000   297.05186      309.53006     -2319.0415     -1935.6394    
    516500   303.12628      300.01359     -2317.1133     -1925.871     
    517000   316.57776      2593.0681     -2285.9579     -1877.3539    
    517500   294.45605      560.71744     -2302.4923     -1922.4406    
    518000   295.59123      357.38642     -2316.6967     -1935.1798    
    518500   325.82381      1040.7058     -2309.2018     -1888.664     
    519000   308.27734     -91.239786     -2297.2134     -1899.3227    
    519500   283.74199      1367.5468     -2307.4419     -1941.2187    
    520000   326.07896      232.56307     -2324.5004     -1903.6332    
    520500   308.08218      1015.6756     -2305.5231     -1907.8843    
[...]
   2376000   305.22112     -297.93026     -2316.927      -1922.981     
   2376500   314.31276      2523.7885     -2289.9162     -1884.2356    
   2377000   304.22438     -53.305245     -2333.1672     -1940.5076    
   2377500   290.1203      -156.09881     -2329.8825     -1955.4269    
   2378000   304.0474       2062.4041     -2286.385      -1893.9539    
   2378500   283.19031      1324.8454     -2289.3073     -1923.7961    
   2379000   278.77352      599.63703     -2315.3556     -1955.5452    
   2379500   304.79015      432.30563     -2334.2716     -1940.8818    
   2380000   289.39574      2943.4995     -2271.637      -1898.1166    
   2380500   288.9684       1650.1679     -2298.0548     -1925.0859    
   2381000   281.81128      664.95726     -2315.9827     -1952.2515    
   2381500   308.42531      2232.6897     -2301.4977     -1903.416     
   2382000   309.86128      1734.9266     -2314.572      -1914.637     
   2382500   313.58224      1100.52       -2345.5028     -1940.7651    
   2383000   285.92951      2056.7367     -2318.32       -1949.2735    
   2383500   300.11338      368.50212     -2301.2712     -1913.9176    
   2384000   311.18389      1060.6632     -2291.8367     -1890.1945    
   2384500   294.41261      1007.5892     -2326.6985     -1946.7029    
   2385000   309.17791      843.84631     -2313.0241     -1913.971     
   2385500   287.18741     -385.55806     -2299.2858     -1928.6157    
   2386000   309.41776      2402.5634     -2323.2266     -1923.864     
   2386500   292.97999      1066.1568     -2323.2386     -1945.092     
   2387000   255.19651     -443.62502     -2294.5399     -1965.1601    
   2387500   302.39262      226.64714     -2310.4659     -1920.1706    
   2388000   307.50396      2414.3825     -2288.8386     -1891.9461    
   2388500   292.50115      1785.9819     -2315.6244     -1938.0959    
   2389000   291.28059      1390.5179     -2329.4098     -1953.4566    
   2389500   304.24836      823.94561     -2342.5753     -1949.8848    
   2390000   300.16303      1598.8269     -2302.3533     -1914.9357    
   2390500   312.35194      1256.5754     -2295.1614     -1892.0116    
   2391000   289.2451      -100.10107     -2322.8177     -1949.4917    
   2391500   303.17458      3515.999      -2310.0401     -1918.7354    
   2392000   328.99437      1136.3673     -2322.9419     -1898.3119    
   2392500   285.83851      1052.0141     -2331.2415     -1962.3124    
   2393000   292.21782     -590.99291     -2305.6455     -1928.4827    
   2393500   288.22009      1572.9674     -2292.4755     -1920.4725    
   2394000   296.44672      2309.684      -2322.4685     -1939.8475    
   2394500   307.02057      1368.1433     -2302.1567     -1905.8881    
   2395000   318.45784      1777.8582     -2320.3662     -1909.3356    
   2395500   300.16403      465.27511     -2353.4303     -1966.0114    
   2396000   292.21504      944.35766     -2312.4526     -1935.2934    
   2396500   288.4003       486.78901     -2274.2032     -1901.9676    
   2397000   304.35813      2891.2282     -2306.8493     -1914.0171    
   2397500   302.62821      1861.1958     -2318.5008     -1927.9013    
   2398000   307.01173      831.53906     -2321.8766     -1925.6194    
   2398500   313.99661      1513.4336     -2292.9864     -1887.7139    
   2399000   290.73678      1036.6682     -2319.7292     -1944.478     
   2399500   282.5328       1313.8793     -2315.6733     -1951.0108    
   2400000   316.36722      1975.5678     -2308.7376     -1900.4053    
   2400500   286.90726      627.96993     -2310.8815     -1940.5729    
   2401000   283.4793       195.38151     -2312.4012     -1946.5171    
   2401500   303.25371      547.24374     -2303.7542     -1912.3475    
   2402000   301.69489      2350.7052     -2345.0634     -1955.6686    
   2402500   291.47498     -133.33726     -2328.6257     -1952.4217    
   2403000   296.10507      1202.7699     -2285.4746     -1903.2945    
   2403500   316.65259      885.19543     -2317.5744     -1908.8738    
   2404000   298.03599      363.91372     -2318.5392     -1933.8669    
   2404500   302.64471      1154.8189     -2340.4148     -1949.7941    
   2405000   295.24652      2384.5349     -2318.4071     -1937.3351    
   2405500   318.84475      1063.3541     -2288.8967     -1877.3668    
   2406000   285.6358      -435.29889     -2296.578      -1927.9105    
   2406500   306.46756      736.49893     -2311.7485     -1916.1936    
   2407000   318.97121      1218.5302     -2321.3466     -1909.6534    
   2407500   292.90179      900.5782      -2332.1743     -1954.1287    
   2408000   300.94367      1903.3209     -2307.7717     -1919.3465    
   2408500   304.29308      485.87009     -2259.0012     -1866.2529    
   2409000   302.3454       962.4841      -2301.9927     -1911.7583    
   2409500   298.06277     -126.08017     -2313.3505     -1928.6437    
   2410000   284.12526      836.53449     -2310.5125     -1943.7947    
   2410500   296.98909      949.99791     -2353.0513     -1969.7302    
   2411000   321.45938      1104.6531     -2329.0652     -1914.1605    
   2411500   307.6193       1183.1179     -2326.6665     -1929.6251    
   2412000   283.36791      893.70979     -2341.8699     -1976.1296    
   2412500   298.99952      1002.3853     -2301.2664     -1915.3504    
   2413000   296.51024      1537.4425     -2297.2148     -1914.5117    
   2413500   300.73103      325.67163     -2345.3689     -1957.2181    
   2414000   315.71491      1968.2785     -2326.7193     -1919.229     
   2414500   289.93644     -111.48183     -2285.9258     -1911.7075    
   2415000   307.70158      464.64682     -2323.2672     -1926.1196    
   2415500   281.39421      2676.5947     -2324.4655     -1961.2726    
   2416000   311.01005      1171.4565     -2323.9773     -1922.5595    
   2416500   312.13705      2841.596      -2262.6235     -1859.7511    
   2417000   302.101        837.66381     -2311.8899     -1921.9709    
   2417500   286.77086     -824.26585     -2303.9865     -1933.854     
   2418000   300.21718      937.2009      -2293.8116     -1906.324     
   2418500   321.38414      220.6021      -2312.3136     -1897.506     
   2419000   280.88248      373.0592      -2311.4885     -1948.9561    
   2419500   294.07138      90.37653      -2324.4818     -1944.9265    
   2420000   305.70584      618.96454     -2286.3889     -1891.8172    
   2420500   292.58577      633.5408      -2314.7755     -1937.1378    
   2421000   306.9632       1737.1344     -2310.0331     -1913.8386    
   2421500   298.89775      1205.2846     -2272.4916     -1886.7071    
   2422000   290.83208      1181.0415     -2308.4141     -1933.0398    
   2422500   315.04992      1843.5484     -2326.576      -1919.944     
   2423000   289.78952      378.84463     -2324.485      -1950.4563    
   2423500   276.43984      923.76448     -2319.6977     -1962.8994    
   2424000   306.77535      1375.7999     -2306.8917     -1910.9396    
   2424500   297.00444      826.57674     -2316.5179     -1933.1771    
   2425000   269.41399      1544.5057     -2332.0782     -1984.348     
   2425500   314.01306     -14.123512     -2331.8606     -1926.5668    
   2426000   279.33122      1339.7077     -2272.7756     -1912.2454    
   2426500   312.15176     -284.89129     -2337.9019     -1935.0105    
   2427000   295.285        1410.8397     -2328.2337     -1947.1121    
   2427500   311.10413      242.33016     -2299.7441     -1898.2048    
   2428000   299.39248      3156.7857     -2324.9811     -1938.558     
   2428500   295.87255      1691.7548     -2327.5752     -1945.6953    
   2429000   297.3829       475.3655      -2297.5669     -1913.7375    
   2429500   319.44497      1813.6112     -2298.4607     -1886.156     
   2430000   294.40239      646.2852      -2315.541      -1935.5585    
   2430500   294.52877     -321.03117     -2308.615      -1928.4695    
   2431000   307.37645      2522.6688     -2279.3546     -1882.6266    
   2431500   296.51804      512.03186     -2320.333      -1937.6199    
   2432000   295.07591      745.7234      -2314.4201     -1933.5683    
   2432500   308.14545      3580.0716     -2307.3052     -1909.5847    
   2433000   305.05349      2519.3677     -2288.0799     -1894.3502    
   2433500   308.82852      1337.3093     -2347.9693     -1949.3672    
   2434000   292.6778       382.17458     -2316.7345     -1938.9779    
   2434500   311.73477      934.04956     -2303.4617     -1901.1085    
   2435000   310.84357      1377.3173     -2338.6726     -1937.4696    
   2435500   285.3512       2802.6644     -2298.4846     -1930.1844    
   2436000   316.58877      236.93432     -2306.0162     -1897.398     
   2436500   303.47861      882.73718     -2322.3499     -1930.6529    
   2437000   306.52289     -1064.7484     -2317.1005     -1921.4743    
   2437500   316.18751     -550.84641     -2286.2091     -1878.1088    
   2438000   300.18232      2467.5029     -2313.9658     -1926.5233    
   2438500   288.43095      2128.6684     -2317.1893     -1944.9141    
   2439000   304.8779       1403.7162     -2296.364      -1902.861     
   2439500   299.13365      825.40152     -2292.9427     -1906.8537    
   2440000   300.78347     -145.21713     -2319.6685     -1931.45      
   2440500   314.06433      61.102999     -2269.9409     -1864.581     
   2441000   303.9701       1401.0777     -2291.3775     -1899.0461    
   2441500   296.36783      1088.8556     -2318.8899     -1936.3706    
   2442000   290.76341      622.64458     -2338.6089     -1963.3233    
   2442500   286.54378      1268.7077     -2318.776      -1948.9366    
   2443000   304.61892      1864.5496     -2302.3853     -1909.2165    
   2443500   297.35329      1245.0107     -2328.2556     -1944.4645    
   2444000   293.3323       1051.5797     -2351.2691     -1972.6679    
   2444500   276.40187      1245.9732     -2292.9614     -1936.212     
   2445000   317.17162      2175.6771     -2312.6249     -1903.2544    
   2445500   299.2399       2583.0977     -2327.4235     -1941.1974    
   2446000   293.9067       260.68943     -2325.4202     -1946.0775    
   2446500   310.36076      219.50552     -2313.2417     -1912.662     
   2447000   304.24422      258.0967      -2312.1033     -1919.4181    
   2447500   298.80406      752.41381     -2300.1645     -1914.5008    
   2448000   307.07699     -60.647719     -2336.3338     -1939.9924    
   2448500   286.99564      1451.7869     -2344.188      -1973.7653    
   2449000   311.25802      1426.0957     -2314.967      -1913.2292    
   2449500   280.17791      1740.2949     -2295.4405     -1933.8175    
   2450000   286.17839      1648.4447     -2330.8003     -1961.4324    
   2450500   289.69224     -63.067363     -2309.0082     -1935.1051    
   2451000   306.14811     -463.5231      -2300.6302     -1905.4877    
   2451500   291.53929      1628.5586     -2315.4383     -1939.1512    
   2452000   300.43942      604.65606     -2321.0631     -1933.2888    
   2452500   328.699        1036.8015     -2320.2518     -1896.003     
   2453000   307.67228      950.69373     -2299.8996     -1902.7898    
   2453500   291.84124      1271.9783     -2294.781      -1918.1042    
   2454000   284.21702      426.71575     -2316.5465     -1949.7102    
   2454500   301.90532      249.82705     -2359.5833     -1969.9169    
   2455000   300.71532      1173.3262     -2299.9759     -1911.8454    
   2455500   287.71854      2100.0379     -2305.7836     -1934.4279    
   2456000   280.0236       542.39383     -2318.8915     -1957.4676    
   2456500   300.47073      1390.9984     -2324.6383     -1936.8235    
   2457000   285.60193      754.61289     -2333.1545     -1964.5307    
   2457500   279.03935     -665.61685     -2371.7982     -2011.6447    
   2458000   298.25094      500.84893     -2344.5479     -1959.5981    
   2458500   298.76222      715.21685     -2312.3808     -1926.7712    
   2459000   310.84982      1059.9374     -2282.354      -1881.143     
   2459500   312.3817       1441.6164     -2312.7716     -1909.5834    
   2460000   291.26603     -418.0766      -2323.1792     -1947.2449    
   2460500   304.1453       406.83381     -2306.2442     -1913.6867    
   2461000   298.45798      1958.206      -2269.8661     -1884.6492    
   2461500   292.29643      625.06933     -2315.5934     -1938.3291    
   2462000   300.69842      1506.4732     -2320.2057     -1932.097     
   2462500   314.97276      1534.1484     -2289.1822     -1882.6497    
   2463000   292.48972     -1097.9044     -2322.2738     -1944.7601    
   2463500   283.02598      915.54265     -2288.1361     -1922.8371    
   2464000   314.5502       942.79252     -2321.4123     -1915.4253    
   2464500   297.19416      715.3739      -2331.8239     -1948.2381    
   2465000   312.23502      297.25911     -2312.9194     -1909.9206    
   2465500   291.22887      118.05601     -2287.8713     -1911.9849    
   2466000   293.22614      828.60368     -2328.9144     -1950.4501    
   2466500   298.14164      697.07059     -2307.1338     -1922.3252    
   2467000   316.12336      1156.2546     -2316.0605     -1908.043     
   2467500   308.6964       549.80713     -2354.4762     -1956.0446    
   2468000   306.27579      902.59841     -2312.1594     -1916.8521    
   2468500   321.55915      92.901702     -2336.1342     -1921.1008    
   2469000   291.19459      869.0966      -2325.1653     -1949.3232    
   2469500   309.33468     -461.58273     -2305.688      -1906.4326    
   2470000   307.21386      1886.2299     -2302.4389     -1905.9208    
   2470500   308.86844     -234.27072     -2348.3391     -1949.6855    
   2471000   287.57046      119.76072     -2322.5098     -1951.3453    
   2471500   302.33733      2770.4302     -2301.4708     -1911.2468    
   2472000   299.49853      631.17151     -2316.3586     -1929.7986    
   2472500   306.87492      168.71983     -2334.4924     -1938.4118    
   2473000   298.07283      1255.0496     -2274.6803     -1889.9605    
   2473500   296.24516      659.988       -2323.3897     -1941.0288    
   2474000   297.07121      990.97143     -2316.3249     -1932.8978    
   2474500   330.69017     -385.7487      -2315.4357     -1888.6169    
   2475000   291.47735      59.97127      -2309.0777     -1932.8705    
   2475500   305.57384      1234.9311     -2327.7197     -1933.3184    
   2476000   298.95337      944.69747     -2319.6773     -1933.8209    
   2476500   284.17196     -437.82961     -2288.2605     -1921.4824    
   2477000   308.61129      764.50147     -2289.9606     -1891.6388    
   2477500   307.07154      140.5826      -2331.2281     -1934.8937    
   2478000   282.76385      1395.8206     -2319.0471     -1954.0864    
   2478500   306.38987      1060.6746     -2296.3018     -1900.8472    
   2479000   308.78427     -586.29549     -2330.3956     -1931.8506    
   2479500   291.41164      975.11987     -2321.644      -1945.5217    
   2480000   306.69851      765.97694     -2325.1938     -1929.3408    
   2480500   325.03592      3147.4271     -2286.5867     -1867.0659    
   2481000   295.21024      142.48397     -2308.006      -1926.9808    
   2481500   278.57137     -448.16847     -2308.0231     -1948.4736    
   2482000   325.90827      613.0042      -2312.5777     -1891.9309    
   2482500   282.41438      517.04413     -2314.4213     -1949.9116    
   2483000   291.74673      127.14716     -2312.2276     -1935.6728    
   2483500   313.81872      1209.9803     -2320.5567     -1915.5138    
   2484000   300.24497      101.38315     -2359.7893     -1972.2659    
   2484500   294.57221     -0.92450959    -2318.2188     -1938.0171    
   2485000   306.97433      207.81084     -2313.0951     -1916.8862    
   2485500   310.82072      1516.3741     -2297.4471     -1896.2736    
   2486000   300.37603      1311.3898     -2326.3196     -1938.627     
   2486500   296.95482      193.85815     -2346.8472     -1963.5704    
   2487000   304.70676      848.86916     -2304.8915     -1911.6093    
   2487500   332.78102      1576.7833     -2287.6955     -1858.1781    
   2488000   310.44754      397.80254     -2306.2876     -1905.5959    
   2488500   284.08883      928.55992     -2300.1497     -1933.4789    
   2489000   291.04772      1011.8735     -2356.5806     -1980.928     
   2489500   310.88461     -658.39863     -2369.6487     -1968.3928    
   2490000   304.43764      907.46807     -2337.6562     -1944.7214    
   2490500   312.05357      1171.5565     -2313.8622     -1911.0975    
   2491000   292.48295      835.32981     -2287.5533     -1910.0482    
   2491500   276.68777      2181.529      -2304.9315     -1947.8131    
   2492000   307.73279      2254.2552     -2305.5099     -1908.322     
   2492500   315.10345      2017.2419     -2337.3587     -1930.6576    
   2493000   274.16749      1815.7325     -2320.989      -1967.1235    
   2493500   291.07542      1359.3219     -2292.6227     -1916.9344    
   2494000   304.19063      1045.5907     -2317.7322     -1925.1162    
   2494500   285.09528      2871.1792     -2338.5833     -1970.6135    
   2495000   292.13088      935.98453     -2312.339      -1935.2883    
   2495500   298.51702     -341.96216     -2330.9127     -1945.6196    
   2496000   303.02293      672.58171     -2353.4445     -1962.3357    
   2496500   300.19538      146.07876     -2295.5261     -1908.0667    
   2497000   298.02287      1139.653      -2321.5925     -1936.9372    
   2497500   292.97787      268.47685     -2366.6407     -1988.4968    
   2498000   287.70804      990.98605     -2359.4293     -1988.0872    
   2498500   295.89499      317.88052     -2318.3776     -1936.4687    
   2499000   295.73589      1199.6069     -2287.9964     -1906.2929    
   2499500   305.3301       1868.7119     -2302.958      -1908.8713    
   2500000   307.67177      794.82534     -2348.5958     -1951.4867    
Loop time of 3991.71 on 16 procs for 2500000 steps with 650 atoms

Performance: 108.224 ns/day, 0.222 hours/ns, 626.298 timesteps/s
89.4% CPU use with 16 MPI tasks x no OpenMP threads

MPI task timing breakdown:
Section |  min time  |  avg time  |  max time  |%varavg| %total
---------------------------------------------------------------
Pair    | 1064.5     | 1212.8     | 1338.3     | 226.0 | 30.38
Bond    | 1.0836     | 1.1692     | 1.2818     |   4.9 |  0.03
Kspace  | 1159.7     | 1283.3     | 1430.9     | 219.1 | 32.15
Neigh   | 123.19     | 123.43     | 123.57     |   1.0 |  3.09
Comm    | 620.57     | 622.54     | 624.29     |   4.0 | 15.60
Output  | 2.7753     | 2.7842     | 2.8422     |   0.9 |  0.07
Modify  | 696.78     | 698.83     | 701.12     |   5.3 | 17.51
Other   |            | 46.83      |            |       |  1.17

Nlocal:         40.625 ave          48 max          33 min
Histogram: 2 0 1 0 4 4 1 1 2 1
Nghost:        3287.75 ave        3339 max        3233 min
Histogram: 2 1 2 2 0 2 1 2 3 1
Neighs:        15444.4 ave       17668 max       11922 min
Histogram: 1 0 1 1 2 1 4 3 1 2

Total # of neighbors = 247111
Ave neighs/atom = 380.17077
Ave special neighs/atom = 1.9938462
Neighbor list builds = 198716
Dangerous builds = 22491

write_data  end.data                                   # write a lammps.data file with the final configuration, can be used to start new simulations
System init for write_data ...
PPPM initialization ...
  using 12-bit tables for long-range coulomb (../kspace.cpp:342)
  G vector (1/distance) = 0.30520329
  grid = 16 16 16
  stencil order = 5
  estimated absolute RMS force accuracy = 0.0030333252
  estimated relative force accuracy = 9.1347686e-06
  using double precision KISS FFT
  3d grid and FFT values/proc = 2475 256
Generated 5 of 6 mixed pair_coeff terms from arithmetic mixing rule
WARNING: Not all mixed pair coeffs generated from mixing. Use write_data with 'pair ij' option to store all pair coeffs. (../write_data.cpp:309)
Total wall time: 1:06:31
